                               Psi4 1.4a3.dev88

  ==> Input File <==

--------------------------------------------------------------------------
# Any line starting with the # character is a comment line
memory 250000 mb
molecule molecule{
0 3
O          0.0000000000        0.0000000000        0.6268479116
O          0.0000000000        0.0000000000       -0.6268479116
}

set {
  reference uhf
  basis aug-cc-pV(t+d)Z
  scf_type OUT_OF_CORE
  freeze_core true
}

energy('ccsd(t)')
--------------------------------------------------------------------------

    Molecular point group: d2h

    Geometry (in Angstrom), charge = 0, multiplicity = 3:

       Center              X                  Y                   Z               Mass
    ------------   -----------------  -----------------  -----------------  -----------------
         O            0.000000000000     0.000000000000     0.626847911600    15.994914619570
         O            0.000000000000     0.000000000000    -0.626847911600    15.994914619570

  Charge       = 0
  Multiplicity = 3
  Basis Set: AUG-CC-PV(T+D)Z
    Blend: AUG-CC-PV(T+D)Z

    Orbital Energies [Eh]
    ---------------------

    Alpha Occupied:

       1Ag   -20.767842     1B1u  -20.767295     2Ag    -1.683434
       2B1u   -1.225863     1B3u   -0.830850     1B2u   -0.830850
       3Ag    -0.752657     1B2g   -0.577727     1B3g   -0.577727

    Alpha Virtual:

       3B1u    0.097575     4Ag     0.141784     2B3u    0.151824
       2B2u    0.151824     2B2g    0.198428     2B3g    0.198428
       5Ag     0.206162     4B1u    0.308339     5B1u    0.431751
       6Ag     0.571858     1B1g    0.571858     7Ag     0.678054
       3B2u    0.750143     3B3u    0.750143     6B1u    0.788744
       1Au     0.788744     3B2g    0.798161     3B3g    0.798161
       7B1u    0.835813     4B3u    0.869757     4B2u    0.869757
       8Ag     0.976984     8B1u    0.982941     4B2g    1.144113
       4B3g    1.144113     9Ag     1.543240    10Ag     1.846098
       2B1g    1.846098     5B3u    1.870146     5B2u    1.870146
       6B3u    1.884417     6B2u    1.884417     9B1u    2.146589
       2Au     2.146589    11Ag     2.153971    12Ag     2.173174
       3B1g    2.173174     5B2g    2.234770     5B3g    2.234770
       6B3g    2.284690     6B2g    2.284690    10B1u    2.330329
       7B3u    2.652199     7B2u    2.652199    11B1u    2.726029
      12B1u    2.783107     3Au     2.783107    13B1u    2.800709
       7B2g    3.097415     7B3g    3.097415    13Ag     3.440488
       8B3u    4.057555     8B2u    4.057555    14Ag     4.267165
       8B2g    4.770953     8B3g    4.770953     9B3u    5.943991
       9B2u    5.943991    15Ag     6.005502    14B1u    6.098245
      16Ag     6.126031     4B1g    6.126031    10B3u    6.293579
      10B2u    6.293579     9B2g    6.455195     9B3g    6.455195
      17Ag     6.818592     5B1g    6.818592    15B1u    6.837611
       4Au     6.837611     5Au     6.968295    16B1u    6.968295
      17B1u    6.975459    11B3u    7.098960    11B2u    7.098960
      10B2g    7.423702    10B3g    7.423702    11B2g    7.612955
      11B3g    7.612955    18Ag     7.849479    18B1u    8.226612
      19Ag    12.227711    19B1u   13.501297

    Beta Occupied:

       1Ag   -20.712479     1B1u  -20.711462     2Ag    -1.545621
       2B1u   -1.011162     3Ag    -0.694961     1B2u   -0.557627
       1B3u   -0.557627

    Beta Virtual:

       1B3g    0.073797     1B2g    0.073797     3B1u    0.100577
       4Ag     0.144950     2B2u    0.160859     2B3u    0.160859
       5Ag     0.202563     2B3g    0.224320     2B2g    0.224320
       4B1u    0.330749     5B1u    0.485519     6Ag     0.570746
       1B1g    0.570746     7Ag     0.675031     3B3u    0.758681
       3B2u    0.758681     1Au     0.802889     6B1u    0.802889
       3B3g    0.843949     3B2g    0.843949     7B1u    0.854878
       4B2u    0.942614     4B3u    0.942614     8B1u    0.999237
       8Ag     1.001604     4B3g    1.182955     4B2g    1.182955
       9Ag     1.546071    10Ag     1.871665     2B1g    1.871665
       5B3u    1.875763     5B2u    1.875763     6B2u    1.930309
       6B3u    1.930309    11Ag     2.184998     3B1g    2.217630
      12Ag     2.217630     2Au     2.226953     9B1u    2.226953
       5B2g    2.251176     5B3g    2.251176     6B2g    2.309744
       6B3g    2.309744    10B1u    2.359162     7B3u    2.665682
       7B2u    2.665682    11B1u    2.754516     3Au     2.808560
      12B1u    2.808560    13B1u    2.821316     7B3g    3.161403
       7B2g    3.161403    13Ag     3.503087     8B2u    4.169654
       8B3u    4.169654    14Ag     4.293754     8B3g    4.862004
       8B2g    4.862004     9B2u    5.970094     9B3u    5.970094
      15Ag     6.029887    14B1u    6.137765     4B1g    6.162014
      16Ag     6.162014    10B3u    6.356743    10B2u    6.356743
       9B2g    6.519939     9B3g    6.519939     4Au     6.882227
      15B1u    6.882227     5B1g    6.944144    17Ag     6.944144
      16B1u    7.017573     5Au     7.090335    17B1u    7.090335
      11B2u    7.165805    11B3u    7.165805    10B3g    7.486645
      10B2g    7.486645    11B3g    7.646004    11B2g    7.646004
      18Ag     7.881340    18B1u    8.248992    19Ag    12.276512
      19B1u   13.548415

    Final Occupation by Irrep:
             Ag   B1g   B2g   B3g    Au   B1u   B2u   B3u
    DOCC [     3,    0,    0,    0,    0,    2,    1,    1 ]
    SOCC [     0,    0,    1,    1,    0,    0,    0,    0 ]

  @UHF Final Energy:  -149.66751589403802

   => Energetics <=

    Nuclear Repulsion Energy =             27.0140020060330031
    One-Electron Energy =                -259.5578493566207499
    Two-Electron Energy =                  82.8763314565497353
    Total Energy =                       -149.6675158940380186

  UHF NO Occupations:
  HONO-2 :    1B3u 1.9890794
  HONO-1 :    1B3g 1.0000000
  HONO-0 :    1B2g 1.0000000
  LUNO+0 :    2B3u 0.0109206
  LUNO+1 :    2B2u 0.0109206
  LUNO+2 :    3B1u 0.0035679
  LUNO+3 :    4 Ag 0.0013607

Computation Completed

Properties will be evaluated at   0.000000,   0.000000,   0.000000 [a0]

Properties computed using the SCF density matrix

  Nuclear Dipole Moment: [e a0]
     X:     0.0000      Y:     0.0000      Z:     0.0000

  Electronic Dipole Moment: [e a0]
     X:     0.0000      Y:     0.0000      Z:     0.0000

  Dipole Moment: [e a0]
     X:     0.0000      Y:     0.0000      Z:     0.0000     Total:     0.0000

  Dipole Moment: [D]
     X:     0.0000      Y:     0.0000      Z:     0.0000     Total:     0.0000

*** tstop() called on n412-040.vsc4.prov at Tue Jan 26 18:22:49 2021
Module time:
	user time   =      23.03 seconds =       0.38 minutes
	system time =       1.14 seconds =       0.02 minutes
	total time  =          3 seconds =       0.05 minutes
Total time:
	user time   =      23.03 seconds =       0.38 minutes
	system time =       1.14 seconds =       0.02 minutes
	total time  =          3 seconds =       0.05 minutes

*** tstart() called on n412-040.vsc4.prov
*** at Tue Jan 26 18:22:49 2021

	Wfn Parameters:
	--------------------
	Wavefunction         = CCSD_T
	Number of irreps     = 8
	Number of MOs        = 92
	Number of active MOs = 90
	AO-Basis             = NONE
	Semicanonical        = false
	Reference            = UHF
	Print Level          = 1

	IRREP	# MOs	# FZDC	# DOCC	# SOCC	# VIRT	# FZVR
	-----	-----	------	------	------	------	------
	 Ag	   19	    1	    2	    0	    16	    0
	 B1g	   5	    0	    0	    0	    5	    0
	 B2g	   11	    0	    0	    1	    10	    0
	 B3g	   11	    0	    0	    1	    10	    0
	 Au	   5	    0	    0	    0	    5	    0
	 B1u	   19	    1	    1	    0	    17	    0
	 B2u	   11	    0	    1	    0	    10	    0
	 B3u	   11	    0	    1	    0	    10	    0
	Transforming integrals...
	IWL integrals will be deleted.
	(OO|OO)...
	Presorting SO-basis two-electron integrals.
	Sorting File: SO Ints (nn|nn) nbuckets = 1
	Constructing frozen core operators
	Starting AA/AB first half-transformation.
	Sorting AA/AB half-transformed integrals.
	Starting BB first half-transformation.
	Sorting BB half-transformed integrals.
	First half integral transformation complete.
	Starting AA second half-transformation.
	Starting AB second half-transformation.
	Starting BB second half-transformation.
	Two-electron integral transformation complete.
	(OO|OV)...
	Starting AA second half-transformation.
	Starting AB second half-transformation.
	Starting BB second half-transformation.
	Two-electron integral transformation complete.
	(OO|VV)...
	Starting AA second half-transformation.
	Starting AB second half-transformation.
	Starting BB second half-transformation.
	Two-electron integral transformation complete.
	(OV|OO)...
	Starting AA/AB first half-transformation.
	Sorting AA/AB half-transformed integrals.
	Starting BB first half-transformation.
	Sorting BB half-transformed integrals.
	First half integral transformation complete.
	Starting AA second half-transformation.
	Starting AB second half-transformation.
	Starting BB second half-transformation.
	Two-electron integral transformation complete.
	(OV|OV)...
	Starting AA second half-transformation.
	Starting AB second half-transformation.
	Starting BB second half-transformation.
	Two-electron integral transformation complete.
	(OV|VV)...
	Starting AA second half-transformation.
	Starting AB second half-transformation.
	Starting BB second half-transformation.
	Two-electron integral transformation complete.
	(VV|OO)...
	Starting AA/AB first half-transformation.
	Sorting AA/AB half-transformed integrals.
	Starting BB first half-transformation.
	Sorting BB half-transformed integrals.
	First half integral transformation complete.
	Starting AA second half-transformation.
	Starting AB second half-transformation.
	Starting BB second half-transformation.
	Two-electron integral transformation complete.
	(VV|OV)...
	Starting AA second half-transformation.
	Starting AB second half-transformation.
	Starting BB second half-transformation.
	Two-electron integral transformation complete.
	(VV|VV)...
	Starting AA second half-transformation.
	Starting AB second half-transformation.
	Starting BB second half-transformation.
	Two-electron integral transformation complete.
	Frozen core energy     =   -130.03113262479096

	Size of irrep 0 of <AB|CD> integrals:      0.208 (MW) /      1.663 (MB)
	Size of irrep 1 of <AB|CD> integrals:      0.133 (MW) /      1.066 (MB)
	Size of irrep 2 of <AB|CD> integrals:      0.185 (MW) /      1.479 (MB)
	Size of irrep 3 of <AB|CD> integrals:      0.185 (MW) /      1.479 (MB)
	Size of irrep 4 of <AB|CD> integrals:      0.133 (MW) /      1.066 (MB)
	Size of irrep 5 of <AB|CD> integrals:      0.247 (MW) /      1.976 (MB)
	Size of irrep 6 of <AB|CD> integrals:      0.185 (MW) /      1.479 (MB)
	Size of irrep 7 of <AB|CD> integrals:      0.185 (MW) /      1.479 (MB)
	Total:                                     1.461 (MW) /     11.688 (MB)

	Size of irrep 0 of <ab|cd> integrals:      0.227 (MW) /      1.813 (MB)
	Size of irrep 1 of <ab|cd> integrals:      0.149 (MW) /      1.192 (MB)
	Size of irrep 2 of <ab|cd> integrals:      0.203 (MW) /      1.627 (MB)
	Size of irrep 3 of <ab|cd> integrals:      0.203 (MW) /      1.627 (MB)
	Size of irrep 4 of <ab|cd> integrals:      0.148 (MW) /      1.186 (MB)
	Size of irrep 5 of <ab|cd> integrals:      0.267 (MW) /      2.138 (MB)
	Size of irrep 6 of <ab|cd> integrals:      0.204 (MW) /      1.634 (MB)
	Size of irrep 7 of <ab|cd> integrals:      0.204 (MW) /      1.634 (MB)
	Total:                                     1.606 (MW) /     12.852 (MB)

	Size of irrep 0 of <Ab|Cd> integrals:      1.030 (MW) /      8.242 (MB)
	Size of irrep 1 of <Ab|Cd> integrals:      0.562 (MW) /      4.500 (MB)
	Size of irrep 2 of <Ab|Cd> integrals:      0.776 (MW) /      6.209 (MB)
	Size of irrep 3 of <Ab|Cd> integrals:      0.776 (MW) /      6.209 (MB)
	Size of irrep 4 of <Ab|Cd> integrals:      0.562 (MW) /      4.500 (MB)
	Size of irrep 5 of <Ab|Cd> integrals:      1.028 (MW) /      8.226 (MB)
	Size of irrep 6 of <Ab|Cd> integrals:      0.778 (MW) /      6.223 (MB)
	Size of irrep 7 of <Ab|Cd> integrals:      0.778 (MW) /      6.223 (MB)
	Total:                                     6.292 (MW) /     50.333 (MB)

	Size of irrep 0 of <IA|BC> integrals:      0.089 (MW) /      0.708 (MB)
	Size of irrep 1 of <IA|BC> integrals:      0.040 (MW) /      0.321 (MB)
	Size of irrep 2 of <IA|BC> integrals:      0.063 (MW) /      0.502 (MB)
	Size of irrep 3 of <IA|BC> integrals:      0.063 (MW) /      0.502 (MB)
	Size of irrep 4 of <IA|BC> integrals:      0.040 (MW) /      0.321 (MB)
	Size of irrep 5 of <IA|BC> integrals:      0.089 (MW) /      0.716 (MB)
	Size of irrep 6 of <IA|BC> integrals:      0.063 (MW) /      0.502 (MB)
	Size of irrep 7 of <IA|BC> integrals:      0.063 (MW) /      0.502 (MB)
	Total:                                     0.509 (MW) /      4.075 (MB)

	Size of irrep 0 of <ia|bc> integrals:      0.072 (MW) /      0.572 (MB)
	Size of irrep 1 of <ia|bc> integrals:      0.027 (MW) /      0.216 (MB)
	Size of irrep 2 of <ia|bc> integrals:      0.049 (MW) /      0.390 (MB)
	Size of irrep 3 of <ia|bc> integrals:      0.049 (MW) /      0.390 (MB)
	Size of irrep 4 of <ia|bc> integrals:      0.028 (MW) /      0.228 (MB)
	Size of irrep 5 of <ia|bc> integrals:      0.074 (MW) /      0.596 (MB)
	Size of irrep 6 of <ia|bc> integrals:      0.047 (MW) /      0.376 (MB)
	Size of irrep 7 of <ia|bc> integrals:      0.047 (MW) /      0.376 (MB)
	Total:                                     0.393 (MW) /      3.144 (MB)

	Size of irrep 0 of <Ia|Bc> integrals:      0.092 (MW) /      0.739 (MB)
	Size of irrep 1 of <Ia|Bc> integrals:      0.043 (MW) /      0.342 (MB)
	Size of irrep 2 of <Ia|Bc> integrals:      0.066 (MW) /      0.529 (MB)
	Size of irrep 3 of <Ia|Bc> integrals:      0.066 (MW) /      0.529 (MB)
	Size of irrep 4 of <Ia|Bc> integrals:      0.043 (MW) /      0.342 (MB)
	Size of irrep 5 of <Ia|Bc> integrals:      0.093 (MW) /      0.746 (MB)
	Size of irrep 6 of <Ia|Bc> integrals:      0.065 (MW) /      0.522 (MB)
	Size of irrep 7 of <Ia|Bc> integrals:      0.065 (MW) /      0.522 (MB)
	Total:                                     0.534 (MW) /      4.271 (MB)

	Size of irrep 0 of <iA|bC> integrals:      0.070 (MW) /      0.560 (MB)
	Size of irrep 1 of <iA|bC> integrals:      0.026 (MW) /      0.210 (MB)
	Size of irrep 2 of <iA|bC> integrals:      0.046 (MW) /      0.366 (MB)
	Size of irrep 3 of <iA|bC> integrals:      0.046 (MW) /      0.366 (MB)
	Size of irrep 4 of <iA|bC> integrals:      0.026 (MW) /      0.210 (MB)
	Size of irrep 5 of <iA|bC> integrals:      0.071 (MW) /      0.568 (MB)
	Size of irrep 6 of <iA|bC> integrals:      0.045 (MW) /      0.360 (MB)
	Size of irrep 7 of <iA|bC> integrals:      0.045 (MW) /      0.360 (MB)
	Total:                                     0.375 (MW) /      3.001 (MB)

	Size of irrep 0 of tIjAb amplitudes:       0.007 (MW) /      0.057 (MB)
	Size of irrep 1 of tIjAb amplitudes:       0.002 (MW) /      0.012 (MB)
	Size of irrep 2 of tIjAb amplitudes:       0.004 (MW) /      0.028 (MB)
	Size of irrep 3 of tIjAb amplitudes:       0.004 (MW) /      0.028 (MB)
	Size of irrep 4 of tIjAb amplitudes:       0.002 (MW) /      0.012 (MB)
	Size of irrep 5 of tIjAb amplitudes:       0.006 (MW) /      0.049 (MB)
	Size of irrep 6 of tIjAb amplitudes:       0.004 (MW) /      0.035 (MB)
	Size of irrep 7 of tIjAb amplitudes:       0.004 (MW) /      0.035 (MB)
	Total:                                     0.032 (MW) /      0.256 (MB)

	Nuclear Rep. energy          =     27.01400200603300
	SCF energy                   =   -149.66751589403802
	One-electron energy          =    -82.45466281711934
	Two-electron (AA) energy     =     10.67272624709610
	Two-electron (BB) energy     =      4.81497694981501
	Two-electron (AB) energy     =     20.31657434492816
	Two-electron energy          =     35.80427754183928
	Reference energy             =   -149.66751589403802

*** tstop() called on n412-040.vsc4.prov at Tue Jan 26 18:22:56 2021
Module time:
	user time   =       1.09 seconds =       0.02 minutes
	system time =       1.01 seconds =       0.02 minutes
	total time  =          7 seconds =       0.12 minutes
Total time:
	user time   =      24.13 seconds =       0.40 minutes
	system time =       2.15 seconds =       0.04 minutes
	total time  =         10 seconds =       0.17 minutes
            **************************
            *                        *
            *        CCENERGY        *
            *                        *
            **************************

    Nuclear Rep. energy (wfn)     =   27.014002006033003
    SCF energy          (wfn)     = -149.667515894038019
    Reference energy    (file100) = -149.667515894038019

    Input parameters:
    -----------------
    Wave function   =     CCSD_T
    Reference wfn   =     UHF
    Brueckner       =     No
    Memory (Mbytes) =     250000.0
    Maxiter         =     50
    R_Convergence   =     1.0e-07
    E_Convergence   =     1.0e-06
    Restart         =     Yes
    DIIS            =     Yes
    AO Basis        =     NONE
    ABCD            =     NEW
    Cache Level     =     2
    Cache Type      =     LRU
    Print Level     =     1
    Num. of threads =     48
    # Amps to Print =     10
    Print MP2 Amps? =     No
    Analyze T2 Amps =     No
    Print Pair Ener =     No
    Local CC        =     No
    SCS-MP2         =     False
    SCSN-MP2        =     False
    SCS-CCSD        =     False

MP2 correlation energy -0.4525160750660701
                Solving CC Amplitude Equations
                ------------------------------
  Iter             Energy              RMS        T1Diag      D1Diag    New D1Diag    D2Diag
  ----     ---------------------    ---------   ----------  ----------  ----------   --------
     0        -0.452516075066070    0.000e+00    0.000000    0.000000    0.000000    0.000000
     1        -0.431043772145544    9.389e-02    0.020440    0.000000    0.000000    0.000000
     2        -0.448235613542877    2.937e-02    0.021658    0.000000    0.000000    0.000000
     3        -0.451119067269431    1.295e-02    0.026478    0.000000    0.000000    0.000000
     4        -0.450968896329946    2.481e-03    0.027131    0.000000    0.000000    0.000000
     5        -0.450950122114450    7.616e-04    0.027260    0.000000    0.000000    0.000000
     6        -0.450953249322429    2.136e-04    0.027251    0.000000    0.000000    0.000000
     7        -0.450956933390038    5.127e-05    0.027248    0.000000    0.000000    0.000000
     8        -0.450958419908737    1.495e-05    0.027248    0.000000    0.000000    0.000000
     9        -0.450957991790950    4.254e-06    0.027247    0.000000    0.000000    0.000000
    10        -0.450957972326182    1.310e-06    0.027247    0.000000    0.000000    0.000000
    11        -0.450957990095246    4.610e-07    0.027247    0.000000    0.000000    0.000000
    12        -0.450957997045671    1.191e-07    0.027247    0.000000    0.000000    0.000000
    13        -0.450958003405786    3.521e-08    0.027247    0.000000    0.000000    0.000000

    Iterations converged.

    Largest TIA Amplitudes:
              6  75        -0.0210843422
              5  65        -0.0210843419
              5  63        -0.0203473090
              6  73        -0.0203473086
              3  31        -0.0173197957
              2  21        -0.0173197950
              2  22        -0.0106385906
              3  32        -0.0106385905
              1  10        -0.0093389658
              0   0        -0.0077923117

    Largest Tia Amplitudes:
              4  77         0.0360852212
              3  67         0.0360852206
              2  50        -0.0267281497
              4  75         0.0251941084
              3  65         0.0251941071
              3  69         0.0115637398

      * MP2 total energy                      = -150.120031969104076
      * CCSD total energy                     = -150.118473897443806
      * CCSD(T) total energy                     = -150.139025705321359
*** Psi4 exiting successfully. Buy a developer a beer!
