                               Psi4 1.4a3.dev88

  ==> Input File <==

--------------------------------------------------------------------------
# Any line starting with the # character is a comment line
memory 250000 mb
molecule molecule{
0 3
O          0.0000000000        0.0000000000        0.6268479116
O          0.0000000000        0.0000000000       -0.6268479116
}

set {
  reference uhf
  basis aug-cc-pV(Q+d)Z
  scf_type OUT_OF_CORE
  freeze_core true
}

energy('ccsd(t)')
--------------------------------------------------------------------------

    Molecular point group: d2h

    Geometry (in Angstrom), charge = 0, multiplicity = 3:

       Center              X                  Y                   Z               Mass
    ------------   -----------------  -----------------  -----------------  -----------------
         O            0.000000000000     0.000000000000     0.626847911600    15.994914619570
         O            0.000000000000     0.000000000000    -0.626847911600    15.994914619570

  Charge       = 0
  Multiplicity = 3
  Basis Set: AUG-CC-PV(Q+D)Z
    Blend: AUG-CC-PV(Q+D)Z

    Orbital Energies [Eh]
    ---------------------

    Alpha Occupied:

       1Ag   -20.765091     1B1u  -20.764533     2Ag    -1.682172
       2B1u   -1.225044     1B2u   -0.830845     1B3u   -0.830845
       3Ag    -0.752493     1B2g   -0.577855     1B3g   -0.577855

    Alpha Virtual:

       3B1u    0.083036     4Ag     0.123458     2B2u    0.130827
       2B3u    0.130827     2B3g    0.167675     2B2g    0.167675
       5Ag     0.174764     4B1u    0.267486     5B1u    0.410350
       6Ag     0.430882     1B1g    0.430882     7Ag     0.494275
       3B3g    0.544022     3B2g    0.544022     3B2u    0.572185
       3B3u    0.572185     6B1u    0.581307     1Au     0.581307
       7B1u    0.604612     4B2u    0.674138     4B3u    0.674138
       8Ag     0.760721     8B1u    0.808570     4B3g    0.902022
       4B2g    0.902022     9Ag     1.043874     5B2u    1.231894
       5B3u    1.231894     2B1g    1.310686    10Ag     1.310686
       6B2u    1.387565     6B3u    1.387565     2Au     1.474059
       9B1u    1.474059    11Ag     1.498110    10B1u    1.499358
       5B3g    1.513247     5B2g    1.513247     3B1g    1.523550
      12Ag     1.523550     6B3g    1.566924     6B2g    1.566924
      11B1u    1.764109     7B2u    1.832364     7B3u    1.832364
       3Au     1.997537    12B1u    1.997537    13B1u    2.030701
      13Ag     2.132414     7B3g    2.143614     7B2g    2.143614
       8B3u    2.649404     8B2u    2.649404    14Ag     2.958848
       8B3g    3.328419     8B2g    3.328419     4B1g    3.440678
      15Ag     3.440678     9B3u    3.464606     9B2u    3.464606
       5B1g    3.636801    16Ag     3.636801    10B2u    3.688456
      10B3u    3.688456    17Ag     3.717998     4Au     3.829616
      14B1u    3.829616    15B1u    3.921462    11B2u    3.940955
      11B3u    3.940955     5Au     4.025526    16B1u    4.025526
      17B1u    4.044646    12B2u    4.046991    12B3u    4.046991
       9B2g    4.075827     9B3g    4.075827    10B3g    4.138124
      10B2g    4.138124     6B1g    4.156045    18Ag     4.156045
      19Ag     4.240762     7B1g    4.465715    20Ag     4.465715
       6Au     4.468271    18B1u    4.468271    11B3g    4.490338
      11B2g    4.490338    19B1u    4.497976    21Ag     4.613267
      12B3g    4.635878    12B2g    4.635878    20B1u    5.365110
      22Ag     5.641939    13B3u    5.692376    13B2u    5.692376
       7Au     5.701068    21B1u    5.701068    13B2g    6.407623
      13B3g    6.407623    22B1u    7.512648    14B3u   10.047898
      14B2u   10.047898    23Ag    10.149261     8B1g   10.165027
      24Ag    10.165027    15B3u   10.381424    15B2u   10.381424
      16B2u   10.393070    16B3u   10.393070    25Ag    10.460998
       9B1g   10.460998     8Au    10.603203    23B1u   10.603203
      14B3g   10.894059    14B2g   10.894059    24B1u   10.909823
      15B2g   11.090225    15B3g   11.090225    26Ag    11.332369
       9Au    11.439188    25B1u   11.439188    16B2g   11.658243
      16B3g   11.658243    17B3u   11.687075    17B2u   11.687075
      26B1u   11.772018    10B1g   11.794096    27Ag    11.794096
      17B3g   11.818945    17B2g   11.818945    10Au    12.278310
      27B1u   12.278310    18B3u   12.401797    18B2u   12.401797
      11B1g   12.522040    28Ag    12.522040    18B2g   12.740283
      18B3g   12.740283    11Au    12.761478    28B1u   12.761478
      29B1u   12.846397    19B3u   12.869438    19B2u   12.869438
      29Ag    12.914295    30Ag    14.261170    19B2g   14.478646
      19B3g   14.478646    30B1u   16.416761    31Ag    41.862001
      31B1u   43.669932

    Beta Occupied:

       1Ag   -20.709673     1B1u  -20.708645     2Ag    -1.543928
       2B1u   -1.010001     3Ag    -0.694822     1B2u   -0.557180
       1B3u   -0.557180

    Beta Virtual:

       1B3g    0.073533     1B2g    0.073533     3B1u    0.085093
       4Ag     0.125835     2B2u    0.137582     2B3u    0.137582
       5Ag     0.172252     2B3g    0.187788     2B2g    0.187788
       4B1u    0.283716     1B1g    0.427820     6Ag     0.427820
       5B1u    0.457760     7Ag     0.490768     3B3g    0.571625
       3B2g    0.571625     3B2u    0.575380     3B3u    0.575380
       1Au     0.586406     6B1u    0.586406     7B1u    0.626910
       4B2u    0.723958     4B3u    0.723958     8Ag     0.778216
       8B1u    0.823977     4B3g    0.942198     4B2g    0.942198
       9Ag     1.041602     5B2u    1.230416     5B3u    1.230416
       2B1g    1.322129    10Ag     1.322129     6B2u    1.418417
       6B3u    1.418417    11Ag     1.506636     9B1u    1.508658
       2Au     1.508658     5B3g    1.518638     5B2g    1.518638
      10B1u    1.520377    12Ag     1.547090     3B1g    1.547090
       6B3g    1.575707     6B2g    1.575707    11B1u    1.772084
       7B2u    1.850833     7B3u    1.850833    12B1u    2.032920
       3Au     2.032920    13B1u    2.044546    13Ag     2.158306
       7B3g    2.202008     7B2g    2.202008     8B2u    2.742316
       8B3u    2.742316    14Ag     2.988905     8B3g    3.390577
       8B2g    3.390577     4B1g    3.446946    15Ag     3.446946
       9B3u    3.465101     9B2u    3.465101    16Ag     3.649196
       5B1g    3.649196    10B2u    3.718668    10B3u    3.718668
      17Ag     3.746795     4Au     3.840740    14B1u    3.840740
      15B1u    3.945470    11B2u    3.977158    11B3u    3.977158
      16B1u    4.051837     5Au     4.051837    12B2u    4.062426
      12B3u    4.062426    17B1u    4.066803     9B2g    4.111515
       9B3g    4.111515    10B3g    4.153434    10B2g    4.153434
      18Ag     4.213926     6B1g    4.213926    19Ag     4.252532
      11B2g    4.503669    11B3g    4.503669    20Ag     4.524921
       7B1g    4.524921    18B1u    4.534327    19B1u    4.567274
       6Au     4.567274    21Ag     4.670939    12B3g    4.687456
      12B2g    4.687456    20B1u    5.384792    22Ag     5.659011
      21B1u    5.721761     7Au     5.721761    13B2u    5.727192
      13B3u    5.727192    13B3g    6.448289    13B2g    6.448289
      22B1u    7.566180    14B2u   10.067221    14B3u   10.067221
      23Ag    10.167211    24Ag    10.185157     8B1g   10.185157
      15B2u   10.421840    15B3u   10.421840    16B2u   10.461301
      16B3u   10.461301    25Ag    10.503121     9B1g   10.503121
       8Au    10.645320    23B1u   10.645320    14B3g   10.924905
      14B2g   10.924905    24B1u   10.925280    15B3g   11.158777
      15B2g   11.158777    26Ag    11.371152    25B1u   11.467133
       9Au    11.467133    16B3g   11.689335    16B2g   11.689335
      17B3u   11.763378    17B2u   11.763378    26B1u   11.801588
      27Ag    11.846205    10B1g   11.846205    17B3g   11.894193
      17B2g   11.894193    27B1u   12.326855    10Au    12.326855
      18B2u   12.440726    18B3u   12.440726    28Ag    12.617065
      11B1g   12.617065    18B3g   12.776150    18B2g   12.776150
      28B1u   12.852245    11Au    12.852245    29B1u   12.872610
      19B2u   12.918089    19B3u   12.918089    29Ag    12.951208
      30Ag    14.276182    19B3g   14.519722    19B2g   14.519722
      30B1u   16.438780    31Ag    41.895953    31B1u   43.704135

    Final Occupation by Irrep:
             Ag   B1g   B2g   B3g    Au   B1u   B2u   B3u
    DOCC [     3,    0,    0,    0,    0,    2,    1,    1 ]
    SOCC [     0,    0,    1,    1,    0,    0,    0,    0 ]

  @UHF Final Energy:  -149.67751266768602

   => Energetics <=

    Nuclear Repulsion Energy =             27.0140020060330031
    One-Electron Energy =                -259.5948685765068262
    Two-Electron Energy =                  82.9033539027878135
    Total Energy =                       -149.6775126676860168

  UHF NO Occupations:
  HONO-2 :    1B3u 1.9889669
  HONO-1 :    1B2g 1.0000000
  HONO-0 :    1B3g 1.0000000
  LUNO+0 :    2B3u 0.0110331
  LUNO+1 :    2B2u 0.0110331
  LUNO+2 :    3B1u 0.0036152
  LUNO+3 :    4 Ag 0.0013919

Computation Completed

Properties will be evaluated at   0.000000,   0.000000,   0.000000 [a0]

Properties computed using the SCF density matrix

  Nuclear Dipole Moment: [e a0]
     X:     0.0000      Y:     0.0000      Z:     0.0000

  Electronic Dipole Moment: [e a0]
     X:     0.0000      Y:     0.0000      Z:     0.0000

  Dipole Moment: [e a0]
     X:     0.0000      Y:     0.0000      Z:     0.0000     Total:     0.0000

  Dipole Moment: [D]
     X:     0.0000      Y:     0.0000      Z:     0.0000     Total:     0.0000

*** tstop() called on l43 at Wed Jan 20 21:13:46 2021
Module time:
	user time   =      16.68 seconds =       0.28 minutes
	system time =       3.19 seconds =       0.05 minutes
	total time  =         15 seconds =       0.25 minutes
Total time:
	user time   =      16.68 seconds =       0.28 minutes
	system time =       3.19 seconds =       0.05 minutes
	total time  =         15 seconds =       0.25 minutes

*** tstart() called on l43
*** at Wed Jan 20 21:13:46 2021

	Wfn Parameters:
	--------------------
	Wavefunction         = CCSD_T
	Number of irreps     = 8
	Number of MOs        = 160
	Number of active MOs = 158
	AO-Basis             = NONE
	Semicanonical        = false
	Reference            = UHF
	Print Level          = 1

	IRREP	# MOs	# FZDC	# DOCC	# SOCC	# VIRT	# FZVR
	-----	-----	------	------	------	------	------
	 Ag	   31	    1	    2	    0	    28	    0
	 B1g	   11	    0	    0	    0	    11	    0
	 B2g	   19	    0	    0	    1	    18	    0
	 B3g	   19	    0	    0	    1	    18	    0
	 Au	   11	    0	    0	    0	    11	    0
	 B1u	   31	    1	    1	    0	    29	    0
	 B2u	   19	    0	    1	    0	    18	    0
	 B3u	   19	    0	    1	    0	    18	    0
	Transforming integrals...
	IWL integrals will be deleted.
	(OO|OO)...
	Presorting SO-basis two-electron integrals.
	Sorting File: SO Ints (nn|nn) nbuckets = 1
	Constructing frozen core operators
	Starting AA/AB first half-transformation.
	Sorting AA/AB half-transformed integrals.
	Starting BB first half-transformation.
	Sorting BB half-transformed integrals.
	First half integral transformation complete.
	Starting AA second half-transformation.
	Starting AB second half-transformation.
	Starting BB second half-transformation.
	Two-electron integral transformation complete.
	(OO|OV)...
	Starting AA second half-transformation.
	Starting AB second half-transformation.
	Starting BB second half-transformation.
	Two-electron integral transformation complete.
	(OO|VV)...
	Starting AA second half-transformation.
	Starting AB second half-transformation.
	Starting BB second half-transformation.
	Two-electron integral transformation complete.
	(OV|OO)...
	Starting AA/AB first half-transformation.
	Sorting AA/AB half-transformed integrals.
	Starting BB first half-transformation.
	Sorting BB half-transformed integrals.
	First half integral transformation complete.
	Starting AA second half-transformation.
	Starting AB second half-transformation.
	Starting BB second half-transformation.
	Two-electron integral transformation complete.
	(OV|OV)...
	Starting AA second half-transformation.
	Starting AB second half-transformation.
	Starting BB second half-transformation.
	Two-electron integral transformation complete.
	(OV|VV)...
	Starting AA second half-transformation.
	Starting AB second half-transformation.
	Starting BB second half-transformation.
	Two-electron integral transformation complete.
	(VV|OO)...
	Starting AA/AB first half-transformation.
	Sorting AA/AB half-transformed integrals.
	Starting BB first half-transformation.
	Sorting BB half-transformed integrals.
	First half integral transformation complete.
	Starting AA second half-transformation.
	Starting AB second half-transformation.
	Starting BB second half-transformation.
	Two-electron integral transformation complete.
	(VV|OV)...
	Starting AA second half-transformation.
	Starting AB second half-transformation.
	Starting BB second half-transformation.
	Two-electron integral transformation complete.
	(VV|VV)...
	Starting AA second half-transformation.
	Starting AB second half-transformation.
	Starting BB second half-transformation.
	Two-electron integral transformation complete.
	Frozen core energy     =   -130.03372344692701

	Size of irrep 0 of <AB|CD> integrals:      2.268 (MW) /     18.144 (MB)
	Size of irrep 1 of <AB|CD> integrals:      1.626 (MW) /     13.005 (MB)
	Size of irrep 2 of <AB|CD> integrals:      2.022 (MW) /     16.177 (MB)
	Size of irrep 3 of <AB|CD> integrals:      2.022 (MW) /     16.177 (MB)
	Size of irrep 4 of <AB|CD> integrals:      1.626 (MW) /     13.005 (MB)
	Size of irrep 5 of <AB|CD> integrals:      2.500 (MW) /     19.996 (MB)
	Size of irrep 6 of <AB|CD> integrals:      2.022 (MW) /     16.177 (MB)
	Size of irrep 7 of <AB|CD> integrals:      2.022 (MW) /     16.177 (MB)
	Total:                                    16.107 (MW) /    128.857 (MB)

	Size of irrep 0 of <ab|cd> integrals:      2.378 (MW) /     19.022 (MB)
	Size of irrep 1 of <ab|cd> integrals:      1.721 (MW) /     13.771 (MB)
	Size of irrep 2 of <ab|cd> integrals:      2.135 (MW) /     17.076 (MB)
	Size of irrep 3 of <ab|cd> integrals:      2.135 (MW) /     17.076 (MB)
	Size of irrep 4 of <ab|cd> integrals:      1.719 (MW) /     13.750 (MB)
	Size of irrep 5 of <ab|cd> integrals:      2.615 (MW) /     20.918 (MB)
	Size of irrep 6 of <ab|cd> integrals:      2.137 (MW) /     17.100 (MB)
	Size of irrep 7 of <ab|cd> integrals:      2.137 (MW) /     17.100 (MB)
	Total:                                    16.976 (MW) /    135.812 (MB)

	Size of irrep 0 of <Ab|Cd> integrals:     10.234 (MW) /     81.869 (MB)
	Size of irrep 1 of <Ab|Cd> integrals:      6.687 (MW) /     53.499 (MB)
	Size of irrep 2 of <Ab|Cd> integrals:      8.312 (MW) /     66.494 (MB)
	Size of irrep 3 of <Ab|Cd> integrals:      8.312 (MW) /     66.494 (MB)
	Size of irrep 4 of <Ab|Cd> integrals:      6.687 (MW) /     53.499 (MB)
	Size of irrep 5 of <Ab|Cd> integrals:     10.227 (MW) /     81.818 (MB)
	Size of irrep 6 of <Ab|Cd> integrals:      8.317 (MW) /     66.540 (MB)
	Size of irrep 7 of <Ab|Cd> integrals:      8.317 (MW) /     66.540 (MB)
	Total:                                    67.094 (MW) /    536.751 (MB)

	Size of irrep 0 of <IA|BC> integrals:      0.497 (MW) /      3.973 (MB)
	Size of irrep 1 of <IA|BC> integrals:      0.268 (MW) /      2.142 (MB)
	Size of irrep 2 of <IA|BC> integrals:      0.378 (MW) /      3.026 (MB)
	Size of irrep 3 of <IA|BC> integrals:      0.378 (MW) /      3.026 (MB)
	Size of irrep 4 of <IA|BC> integrals:      0.268 (MW) /      2.142 (MB)
	Size of irrep 5 of <IA|BC> integrals:      0.500 (MW) /      3.997 (MB)
	Size of irrep 6 of <IA|BC> integrals:      0.378 (MW) /      3.026 (MB)
	Size of irrep 7 of <IA|BC> integrals:      0.378 (MW) /      3.026 (MB)
	Total:                                     3.045 (MW) /     24.358 (MB)

	Size of irrep 0 of <ia|bc> integrals:      0.392 (MW) /      3.133 (MB)
	Size of irrep 1 of <ia|bc> integrals:      0.181 (MW) /      1.448 (MB)
	Size of irrep 2 of <ia|bc> integrals:      0.281 (MW) /      2.244 (MB)
	Size of irrep 3 of <ia|bc> integrals:      0.281 (MW) /      2.244 (MB)
	Size of irrep 4 of <ia|bc> integrals:      0.186 (MW) /      1.489 (MB)
	Size of irrep 5 of <ia|bc> integrals:      0.401 (MW) /      3.208 (MB)
	Size of irrep 6 of <ia|bc> integrals:      0.275 (MW) /      2.199 (MB)
	Size of irrep 7 of <ia|bc> integrals:      0.275 (MW) /      2.199 (MB)
	Total:                                     2.271 (MW) /     18.165 (MB)

	Size of irrep 0 of <Ia|Bc> integrals:      0.509 (MW) /      4.069 (MB)
	Size of irrep 1 of <Ia|Bc> integrals:      0.277 (MW) /      2.214 (MB)
	Size of irrep 2 of <Ia|Bc> integrals:      0.389 (MW) /      3.114 (MB)
	Size of irrep 3 of <Ia|Bc> integrals:      0.389 (MW) /      3.114 (MB)
	Size of irrep 4 of <Ia|Bc> integrals:      0.277 (MW) /      2.214 (MB)
	Size of irrep 5 of <Ia|Bc> integrals:      0.512 (MW) /      4.093 (MB)
	Size of irrep 6 of <Ia|Bc> integrals:      0.386 (MW) /      3.092 (MB)
	Size of irrep 7 of <Ia|Bc> integrals:      0.386 (MW) /      3.092 (MB)
	Total:                                     3.125 (MW) /     25.000 (MB)

	Size of irrep 0 of <iA|bC> integrals:      0.387 (MW) /      3.097 (MB)
	Size of irrep 1 of <iA|bC> integrals:      0.178 (MW) /      1.427 (MB)
	Size of irrep 2 of <iA|bC> integrals:      0.271 (MW) /      2.168 (MB)
	Size of irrep 3 of <iA|bC> integrals:      0.271 (MW) /      2.168 (MB)
	Size of irrep 4 of <iA|bC> integrals:      0.178 (MW) /      1.427 (MB)
	Size of irrep 5 of <iA|bC> integrals:      0.390 (MW) /      3.121 (MB)
	Size of irrep 6 of <iA|bC> integrals:      0.268 (MW) /      2.146 (MB)
	Size of irrep 7 of <iA|bC> integrals:      0.268 (MW) /      2.146 (MB)
	Total:                                     2.213 (MW) /     17.700 (MB)

	Size of irrep 0 of tIjAb amplitudes:       0.022 (MW) /      0.179 (MB)
	Size of irrep 1 of tIjAb amplitudes:       0.005 (MW) /      0.041 (MB)
	Size of irrep 2 of tIjAb amplitudes:       0.012 (MW) /      0.092 (MB)
	Size of irrep 3 of tIjAb amplitudes:       0.012 (MW) /      0.092 (MB)
	Size of irrep 4 of tIjAb amplitudes:       0.005 (MW) /      0.041 (MB)
	Size of irrep 5 of tIjAb amplitudes:       0.019 (MW) /      0.154 (MB)
	Size of irrep 6 of tIjAb amplitudes:       0.014 (MW) /      0.115 (MB)
	Size of irrep 7 of tIjAb amplitudes:       0.014 (MW) /      0.115 (MB)
	Total:                                     0.104 (MW) /      0.831 (MB)

	Nuclear Rep. energy          =     27.01400200603300
	SCF energy                   =   -149.67751266768602
	One-electron energy          =    -82.47536406838279
	Two-electron (AA) energy     =     10.67815632579546
	Two-electron (BB) energy     =      4.81594175169536
	Two-electron (AB) energy     =     20.32347476409956
	Two-electron energy          =     35.81757284159038
	Reference energy             =   -149.67751266768641

*** tstop() called on l43 at Wed Jan 20 21:14:01 2021
Module time:
	user time   =      10.09 seconds =       0.17 minutes
	system time =       5.17 seconds =       0.09 minutes
	total time  =         15 seconds =       0.25 minutes
Total time:
	user time   =      26.77 seconds =       0.45 minutes
	system time =       8.36 seconds =       0.14 minutes
	total time  =         30 seconds =       0.50 minutes
            **************************
            *                        *
            *        CCENERGY        *
            *                        *
            **************************

    Nuclear Rep. energy (wfn)     =   27.014002006033003
    SCF energy          (wfn)     = -149.677512667686017
    Reference energy    (file100) = -149.677512667686415

    Input parameters:
    -----------------
    Wave function   =     CCSD_T
    Reference wfn   =     UHF
    Brueckner       =     No
    Memory (Mbytes) =     250000.0
    Maxiter         =     50
    R_Convergence   =     1.0e-07
    E_Convergence   =     1.0e-06
    Restart         =     Yes
    DIIS            =     Yes
    AO Basis        =     NONE
    ABCD            =     NEW
    Cache Level     =     2
    Cache Type      =     LRU
    Print Level     =     1
    Num. of threads =     48
    # Amps to Print =     10
    Print MP2 Amps? =     No
    Analyze T2 Amps =     No
    Print Pair Ener =     No
    Local CC        =     No
    SCS-MP2         =     False

      * MP2 total energy                      = -150.159126612395426
      * CCSD total energy                     = -150.153941652271868
      * CCSD(T) total energy                     = -150.176124374138311
*** Psi4 exiting successfully. Buy a developer a beer!
