                               Psi4 1.2a1.dev939

  ==> Input File <==

--------------------------------------------------------------------------
# Any line starting with the # character is a comment line

memory 32000 mb

molecule molecule {
0 1
N          0.0000000000        0.0000000000       -0.5570422157
N          0.0000000000        0.0000000000        0.5570422157
}

set {
  reference rhf
  basis aug-cc-pv(D+d)z
  scf_type OUT_OF_CORE
  freeze_core true
}

energy('ccsd')
--------------------------------------------------------------------------

    Molecular point group: d2h

    Geometry (in Angstrom), charge = 0, multiplicity = 1:

       Center              X                  Y                   Z               Mass
    ------------   -----------------  -----------------  -----------------  -----------------
           N          0.000000000000     0.000000000000    -0.557042215700    14.003074004780
           N          0.000000000000     0.000000000000     0.557042215700    14.003074004780

  Charge       = 0
  Multiplicity = 1
  Basis Set: AUG-CC-PV(D+D)Z
    Blend: AUG-CC-PV(D+D)Z

    Orbital Energies (a.u.)
    -----------------------

    Doubly Occupied:

       1Ag   -15.703718     1B1u  -15.700603     2Ag    -1.467274
       2B1u   -0.786530     3Ag    -0.633020     1B2u   -0.608527
       1B3u   -0.608527

  @RHF Final Energy:  -108.95773613980874

   => Energetics <=

    Nuclear Repulsion Energy =             23.2744327899150285
    One-Electron Energy =                -193.4479394461343986
    Two-Electron Energy =                  61.2157705164106147
    PCM Polarization Energy =               0.0000000000000000
    Total Energy =                       -108.9577361398087447
      * MP2 total energy                      = -109.279928680822408
      * CCSD total energy                     = -109.281236231518349
*** Psi4 exiting successfully. Buy a developer a beer!
