                               Psi4 1.2a1.dev939

  ==> Input File <==

--------------------------------------------------------------------------
# Any line starting with the # character is a comment line

memory 32000 mb

molecule molecule {
0 1
N          0.0000000000        0.0000000000       -0.5570422157
N          0.0000000000        0.0000000000        0.5570422157
}

set {
  reference rhf

  basis aug-cc-pv(5+d)z
  scf_type OUT_OF_CORE
  freeze_core true
}

energy('ccsd')
--------------------------------------------------------------------------

    Molecular point group: d2h

    Geometry (in Angstrom), charge = 0, multiplicity = 1:

       Center              X                  Y                   Z               Mass
    ------------   -----------------  -----------------  -----------------  -----------------
           N          0.000000000000     0.000000000000    -0.557042215700    14.003074004780
           N          0.000000000000     0.000000000000     0.557042215700    14.003074004780

  Charge       = 0
  Multiplicity = 1
  Basis Set: AUG-CC-PV(5+D)Z
    Blend: AUG-CC-PV(5+D)Z

    Orbital Energies (a.u.)
    -----------------------

    Doubly Occupied:

       1Ag   -15.688980     1B1u  -15.685757     2Ag    -1.459147
       2B1u   -0.784531     3Ag    -0.632998     1B2u   -0.607314
       1B3u   -0.607314

  @RHF Final Energy:  -108.98887382138453

   => Energetics <=

    Nuclear Repulsion Energy =             23.2744327899150285
    One-Electron Energy =                -193.5945305710951629
    Two-Electron Energy =                  61.3312239597955937
    Total Energy =                       -108.9888738213845301
      * MP2 total energy                      = -109.404048126723524
      * CCSD total energy                     = -109.393396292814316
*** Psi4 exiting successfully. Buy a developer a beer!
