                               Psi4 1.4a3.dev88

  ==> Input File <==

--------------------------------------------------------------------------
# Any line starting with the # character is a comment line
memory 250000 mb
molecule molecule{
1 2
P          0.0000000000        0.0000000000        0.0447142727
H          0.0000000000        0.0000000000       -1.3740591214
}

set {
  reference uhf
  basis aug-cc-pV(t+d)Z
  scf_type OUT_OF_CORE
  freeze_core true
}

energy('ccsd(t)')
--------------------------------------------------------------------------

    Molecular point group: c2v

    Geometry (in Angstrom), charge = 1, multiplicity = 2:

       Center              X                  Y                   Z               Mass
    ------------   -----------------  -----------------  -----------------  -----------------
         P            0.000000000000     0.000000000000     0.044709330411    30.973761998420
         H            0.000000000000     0.000000000000    -1.374064063689     1.007825032230

  Charge       = 1
  Multiplicity = 2
  Basis Set: AUG-CC-PV(T+D)Z
    Blend: AUG-CC-PV(T+D)Z

    Orbital Energies [Eh]
    ---------------------

    Alpha Occupied:

       1A1   -80.363517     2A1    -7.897822     1B2    -5.800916
       1B1    -5.785690     3A1    -5.783102     4A1    -1.141958
       5A1    -0.785509     2B2    -0.708400

    Alpha Virtual:

       2B1    -0.326920     6A1    -0.124823     7A1    -0.091757
       3B2    -0.069589     8A1    -0.067847     3B1    -0.066316
       4B2    -0.024691     9A1    -0.018312     1A2    -0.017607
       4B1    -0.017478    10A1    -0.012440    11A1     0.111461
      12A1     0.129065     5B1     0.145123     5B2     0.147207
       6B2     0.250341     6B1     0.263723    13A1     0.270943
       7B2     0.278386     2A2     0.282036    14A1     0.283103
       7B1     0.291806    15A1     0.311736     8B2     0.388763
       8B1     0.388816     3A2     0.392997    16A1     0.393120
      17A1     0.465105     9B1     0.519324     9B2     0.525424
      18A1     0.618384    19A1     0.699174     4A2     0.792406
      20A1     0.792647    10B1     0.806819    10B2     0.811432
      21A1     1.020273    11B1     1.222837    11B2     1.229934
      22A1     1.250565     5A2     1.250781    12B1     1.270763
      12B2     1.278827    23A1     1.294000    13B1     1.529921
      13B2     1.529925    24A1     1.541915     6A2     1.543915
      25A1     1.562035    14B1     1.727572    14B2     1.734034
      26A1     1.889720    15B2     2.114171    15B1     2.116107
      27A1     2.409381    28A1     2.918980     7A2     3.666260
      29A1     3.666274    16B1     3.887070    16B2     3.893610
      30A1     3.988130    17B1     4.126613    17B2     4.132118
      31A1     4.210714    32A1     4.981614     8A2     5.821128
      33A1     5.821242    18B1     5.909729    18B2     5.925246
      34A1     7.047030

    Beta Occupied:

       1A1   -80.355311     2A1    -7.888411     1B1    -5.781557
       3A1    -5.779000     1B2    -5.761473     4A1    -1.059972
       5A1    -0.764819

    Beta Virtual:

       2B1    -0.310489     2B2    -0.253099     6A1    -0.118837
       7A1    -0.081144     8A1    -0.066180     3B1    -0.064931
       3B2    -0.054332     4B1    -0.016614     9A1    -0.011140
       4B2     0.000763     1A2     0.005921    10A1     0.008571
      11A1     0.116103    12A1     0.133823     5B1     0.145716
       5B2     0.153466     6B1     0.269346    13A1     0.274170
       7B1     0.293766     6B2     0.301643    14A1     0.314462
       7B2     0.325942     2A2     0.332850    15A1     0.339459
      16A1     0.401609     3A2     0.401978     8B1     0.402402
       8B2     0.402500    17A1     0.473515     9B1     0.519828
       9B2     0.537257    18A1     0.629074    19A1     0.705104
       4A2     0.796188    20A1     0.797170    10B1     0.806872
      10B2     0.815884    21A1     1.029147    11B1     1.224485
      11B2     1.246984    12B1     1.272862    22A1     1.276437
       5A2     1.279032    23A1     1.302795    12B2     1.305903
      24A1     1.548282    13B1     1.567268    13B2     1.567439
       6A2     1.568629    25A1     1.588463    14B1     1.731537
      14B2     1.771219    26A1     1.895792    15B1     2.120882
      15B2     2.160559    27A1     2.413231    28A1     2.920715
       7A2     3.667214    29A1     3.667268    16B1     3.886531
      16B2     3.897692    30A1     3.998654    17B1     4.124877
      17B2     4.132512    31A1     4.211343    32A1     4.984924
       8A2     5.830652    33A1     5.830993    18B1     5.911095
      18B2     5.935333    34A1     7.052011

    Final Occupation by Irrep:
             A1    A2    B1    B2
    DOCC [     5,    0,    1,    1 ]
    SOCC [     0,    0,    0,    1 ]

  @UHF Final Energy:  -340.94432502218683

   => Energetics <=

    Nuclear Repulsion Energy =              5.5947328819802555
    One-Electron Energy =                -477.4206595359880794
    Two-Electron Energy =                 130.8816016318210131
    Total Energy =                       -340.9443250221868311

  UHF NO Occupations:
  HONO-2 :    4 A1 1.9996665
  HONO-1 :    5 A1 1.9914514
  HONO-0 :    2 B2 1.0000000
  LUNO+0 :    6 A1 0.0085486
  LUNO+1 :    7 A1 0.0003335
  LUNO+2 :    3 B2 0.0000043
  LUNO+3 :    2 B1 0.0000003

Computation Completed

Properties will be evaluated at   0.000000,   0.000000,   0.000000 [a0]

Properties computed using the SCF density matrix

  Nuclear Dipole Moment: [e a0]
     X:     0.0000      Y:     0.0000      Z:    -1.3293

  Electronic Dipole Moment: [e a0]
     X:     0.0000      Y:     0.0000      Z:     0.9627

  Dipole Moment: [e a0]
     X:     0.0000      Y:     0.0000      Z:    -0.3665     Total:     0.3665

  Dipole Moment: [D]
     X:     0.0000      Y:     0.0000      Z:    -0.9316     Total:     0.9316

*** tstop() called on n412-040.vsc4.prov at Tue Jan 26 18:25:47 2021
Module time:
	user time   =      34.18 seconds =       0.57 minutes
	system time =       2.32 seconds =       0.04 minutes
	total time  =          6 seconds =       0.10 minutes
Total time:
	user time   =      34.18 seconds =       0.57 minutes
	system time =       2.32 seconds =       0.04 minutes
	total time  =          6 seconds =       0.10 minutes

*** tstart() called on n412-040.vsc4.prov
*** at Tue Jan 26 18:25:47 2021

	Wfn Parameters:
	--------------------
	Wavefunction         = CCSD_T
	Number of irreps     = 4
	Number of MOs        = 78
	Number of active MOs = 73
	AO-Basis             = NONE
	Semicanonical        = false
	Reference            = UHF
	Print Level          = 1

	IRREP	# MOs	# FZDC	# DOCC	# SOCC	# VIRT	# FZVR
	-----	-----	------	------	------	------	------
	 A1	   34	    3	    2	    0	    29	    0
	 A2	   8	    0	    0	    0	    8	    0
	 B1	   18	    1	    0	    0	    17	    0
	 B2	   18	    1	    0	    1	    16	    0
	Transforming integrals...
	IWL integrals will be deleted.
	(OO|OO)...
	Presorting SO-basis two-electron integrals.
	Sorting File: SO Ints (nn|nn) nbuckets = 1
	Constructing frozen core operators
	Starting AA/AB first half-transformation.
	Sorting AA/AB half-transformed integrals.
	Starting BB first half-transformation.
	Sorting BB half-transformed integrals.
	First half integral transformation complete.
	Starting AA second half-transformation.
	Starting AB second half-transformation.
	Starting BB second half-transformation.
	Two-electron integral transformation complete.
	(OO|OV)...
	Starting AA second half-transformation.
	Starting AB second half-transformation.
	Starting BB second half-transformation.
	Two-electron integral transformation complete.
	(OO|VV)...
	Starting AA second half-transformation.
	Starting AB second half-transformation.
	Starting BB second half-transformation.
	Two-electron integral transformation complete.
	(OV|OO)...
	Starting AA/AB first half-transformation.
	Sorting AA/AB half-transformed integrals.
	Starting BB first half-transformation.
	Sorting BB half-transformed integrals.
	First half integral transformation complete.
	Starting AA second half-transformation.
	Starting AB second half-transformation.
	Starting BB second half-transformation.
	Two-electron integral transformation complete.
	(OV|OV)...
	Starting AA second half-transformation.
	Starting AB second half-transformation.
	Starting BB second half-transformation.
	Two-electron integral transformation complete.
	(OV|VV)...
	Starting AA second half-transformation.
	Starting AB second half-transformation.
	Starting BB second half-transformation.
	Two-electron integral transformation complete.
	(VV|OO)...
	Starting AA/AB first half-transformation.
	Sorting AA/AB half-transformed integrals.
	Starting BB first half-transformation.
	Sorting BB half-transformed integrals.
	First half integral transformation complete.
	Starting AA second half-transformation.
	Starting AB second half-transformation.
	Starting BB second half-transformation.
	Two-electron integral transformation complete.
	(VV|OV)...
	Starting AA second half-transformation.
	Starting AB second half-transformation.
	Starting BB second half-transformation.
	Two-electron integral transformation complete.
	(VV|VV)...
	Starting AA second half-transformation.
	Starting AB second half-transformation.
	Starting BB second half-transformation.
	Two-electron integral transformation complete.
	Frozen core energy     =   -338.09086154339622

	Size of irrep 0 of <AB|CD> integrals:      0.476 (MW) /      3.809 (MB)
	Size of irrep 1 of <AB|CD> integrals:      0.254 (MW) /      2.032 (MB)
	Size of irrep 2 of <AB|CD> integrals:      0.386 (MW) /      3.085 (MB)
	Size of irrep 3 of <AB|CD> integrals:      0.360 (MW) /      2.880 (MB)
	Total:                                     1.476 (MW) /     11.806 (MB)

	Size of irrep 0 of <ab|cd> integrals:      0.498 (MW) /      3.987 (MB)
	Size of irrep 1 of <ab|cd> integrals:      0.271 (MW) /      2.172 (MB)
	Size of irrep 2 of <ab|cd> integrals:      0.396 (MW) /      3.165 (MB)
	Size of irrep 3 of <ab|cd> integrals:      0.396 (MW) /      3.165 (MB)
	Total:                                     1.561 (MW) /     12.489 (MB)

	Size of irrep 0 of <Ab|Cd> integrals:      2.149 (MW) /     17.193 (MB)
	Size of irrep 1 of <Ab|Cd> integrals:      1.051 (MW) /      8.405 (MB)
	Size of irrep 2 of <Ab|Cd> integrals:      1.562 (MW) /     12.500 (MB)
	Size of irrep 3 of <Ab|Cd> integrals:      1.510 (MW) /     12.084 (MB)
	Total:                                     6.273 (MW) /     50.182 (MB)

	Size of irrep 0 of <IA|BC> integrals:      0.107 (MW) /      0.858 (MB)
	Size of irrep 1 of <IA|BC> integrals:      0.033 (MW) /      0.266 (MB)
	Size of irrep 2 of <IA|BC> integrals:      0.052 (MW) /      0.417 (MB)
	Size of irrep 3 of <IA|BC> integrals:      0.073 (MW) /      0.586 (MB)
	Total:                                     0.266 (MW) /      2.127 (MB)

	Size of irrep 0 of <ia|bc> integrals:      0.086 (MW) /      0.688 (MB)
	Size of irrep 1 of <ia|bc> integrals:      0.017 (MW) /      0.133 (MB)
	Size of irrep 2 of <ia|bc> integrals:      0.043 (MW) /      0.342 (MB)
	Size of irrep 3 of <ia|bc> integrals:      0.043 (MW) /      0.342 (MB)
	Total:                                     0.188 (MW) /      1.506 (MB)

	Size of irrep 0 of <Ia|Bc> integrals:      0.110 (MW) /      0.880 (MB)
	Size of irrep 1 of <Ia|Bc> integrals:      0.034 (MW) /      0.271 (MB)
	Size of irrep 2 of <Ia|Bc> integrals:      0.052 (MW) /      0.420 (MB)
	Size of irrep 3 of <Ia|Bc> integrals:      0.077 (MW) /      0.619 (MB)
	Total:                                     0.274 (MW) /      2.190 (MB)

	Size of irrep 0 of <iA|bC> integrals:      0.085 (MW) /      0.680 (MB)
	Size of irrep 1 of <iA|bC> integrals:      0.016 (MW) /      0.131 (MB)
	Size of irrep 2 of <iA|bC> integrals:      0.043 (MW) /      0.340 (MB)
	Size of irrep 3 of <iA|bC> integrals:      0.039 (MW) /      0.315 (MB)
	Total:                                     0.183 (MW) /      1.466 (MB)

	Size of irrep 0 of tIjAb amplitudes:       0.006 (MW) /      0.047 (MB)
	Size of irrep 1 of tIjAb amplitudes:       0.000 (MW) /      0.000 (MB)
	Size of irrep 2 of tIjAb amplitudes:       0.000 (MW) /      0.000 (MB)
	Size of irrep 3 of tIjAb amplitudes:       0.002 (MW) /      0.020 (MB)
	Total:                                     0.008 (MW) /      0.067 (MB)

	Nuclear Rep. energy          =      5.59473288198026
	SCF energy                   =   -340.94432502218683
	One-electron energy          =    -12.43573553289969
	Two-electron (AA) energy     =      1.03230961038399
	Two-electron (BB) energy     =      0.31922791976408
	Two-electron (AB) energy     =      2.63600164198016
	Two-electron energy          =      3.98753917212824
	Reference energy             =   -340.94432502218740

*** tstop() called on n412-040.vsc4.prov at Tue Jan 26 18:25:52 2021
Module time:
	user time   =       0.99 seconds =       0.02 minutes
	system time =       0.67 seconds =       0.01 minutes
	total time  =          5 seconds =       0.08 minutes
Total time:
	user time   =      35.17 seconds =       0.59 minutes
	system time =       2.99 seconds =       0.05 minutes
	total time  =         11 seconds =       0.18 minutes
            **************************
            *                        *
            *        CCENERGY        *
            *                        *
            **************************

    Nuclear Rep. energy (wfn)     =    5.594732881980256
    SCF energy          (wfn)     = -340.944325022186831
    Reference energy    (file100) = -340.944325022187400

    Input parameters:
    -----------------
    Wave function   =     CCSD_T
    Reference wfn   =     UHF
    Brueckner       =     No
    Memory (Mbytes) =     250000.0
    Maxiter         =     50
    R_Convergence   =     1.0e-07
    E_Convergence   =     1.0e-06
    Restart         =     Yes
    DIIS            =     Yes
    AO Basis        =     NONE
    ABCD            =     NEW
    Cache Level     =     2
    Cache Type      =     LRU
    Print Level     =     1
    Num. of threads =     48
    # Amps to Print =     10
    Print MP2 Amps? =     No
    Analyze T2 Amps =     No
    Print Pair Ener =     No
    Local CC        =     No
    SCS-MP2         =     False
    SCSN-MP2        =     False
    SCS-CCSD        =     False

MP2 correlation energy -0.0902723564287847
                Solving CC Amplitude Equations
                ------------------------------
  Iter             Energy              RMS        T1Diag      D1Diag    New D1Diag    D2Diag
  ----     ---------------------    ---------   ----------  ----------  ----------   --------
     0        -0.090272356428785    0.000e+00    0.000000    0.000000    0.000000    0.000000
     1        -0.107364616795586    5.796e-02    0.010639    0.000000    0.000000    0.000000
     2        -0.115744628264572    2.596e-02    0.019632    0.000000    0.000000    0.000000
     3        -0.116237751897415    7.020e-03    0.022395    0.000000    0.000000    0.000000
     4        -0.116318982054847    1.950e-03    0.022773    0.000000    0.000000    0.000000
     5        -0.116315055777403    7.956e-04    0.022799    0.000000    0.000000    0.000000
     6        -0.116309849218347    2.562e-04    0.022759    0.000000    0.000000    0.000000
     7        -0.116314756123146    7.125e-05    0.022757    0.000000    0.000000    0.000000
     8        -0.116314131257052    2.300e-05    0.022755    0.000000    0.000000    0.000000
     9        -0.116313767071687    7.442e-06    0.022754    0.000000    0.000000    0.000000
    10        -0.116313739607132    2.607e-06    0.022754    0.000000    0.000000    0.000000
    11        -0.116313786873261    7.918e-07    0.022754    0.000000    0.000000    0.000000
    12        -0.116313788653537    3.093e-07    0.022754    0.000000    0.000000    0.000000
    13        -0.116313778176043    1.168e-07    0.022754    0.000000    0.000000    0.000000
    14        -0.116313778884864    3.238e-08    0.022754    0.000000    0.000000    0.000000

    Iterations converged.

    Largest TIA Amplitudes:
              0   8         0.0142424340
              1   8         0.0136925342
              1   3        -0.0121387446
              1   1        -0.0120262447
              0   3        -0.0105702630
              0   4         0.0098835029
              1   2        -0.0085327182
              1   4         0.0082940331
              2  55        -0.0079316772
              1   7        -0.0059151126

    Largest Tia Amplitudes:
              0   1         0.0193670097
              1   1         0.0140516776
              0   0         0.0113647011
              0   2         0.0096817836
              0   6        -0.0088549736
              0   5        -0.0080599759
              1   5        -0.0078541052
              1   0         0.0075235798
              0   3         0.0053551658
              0  11        -0.0047782630

    Largest TIJAB Amplitudes:
      2   1  55   1         0.0254049318
      2   1  58   1         0.0225788932
      2   0  37  30        -0.0144607415
      2   0  37  29        -0.0141709040
      2   1  55   0         0.0119100183
      1   0  42  37         0.0118465439
      1   0  39  37         0.0118217188
      2   1  58   9        -0.0104157572
      2   1  58   0         0.0104078698
      2   1  55   5        -0.0099680831

    Largest Tijab Amplitudes:
      1   0  59  54         0.0125712672
      1   0  56  54         0.0115594555
      1   0  39  37         0.0107515265
      1   0  42  37         0.0106609094
      1   0  59  58        -0.0046886037
      1   0  11   1         0.0041575559
      1   0   5   0         0.0040508457
      1   0  59  55         0.0040342532
      1   0  12   7        -0.0039648518
      1   0   6   5         0.0038300617

    Largest TIjAb Amplitudes:
      1   1  37  37        -0.0736592178
      0   0  37  37        -0.0652926388
      0   1  37  37        -0.0459454071
      1   1   1   1        -0.0419654277
      2   0  30  37         0.0366165214
      2   0   8  54        -0.0347623533
      1   0  37  37        -0.0342540673
      2   0  29  37         0.0324452125
      0   1  37  42         0.0307783468
      1   0  42  37         0.0298167722

    SCF energy       (wfn)                    = -340.944325022186831
    Reference energy (file100)                = -340.944325022187400

      * MP2 total energy                      = -341.034597378616184
      * CCSD total energy                     = -341.060638801072287
      * CCSD(T) total energy                     = -341.063858349249301
*** Psi4 exiting successfully. Buy a developer a beer!
