                               Psi4 1.4a3.dev88

  ==> Input File <==

--------------------------------------------------------------------------
# Any line starting with the # character is a comment line
memory 250000 mb
molecule molecule{
1 2
P          0.0000000000        0.0000000000        0.0447142727
H          0.0000000000        0.0000000000       -1.3740591214
}

set {
  reference uhf
  basis aug-cc-pV(5+d)Z
  scf_type OUT_OF_CORE
  freeze_core true
}

energy('ccsd(t)')
--------------------------------------------------------------------------

    Molecular point group: c2v

    Geometry (in Angstrom), charge = 1, multiplicity = 2:

       Center              X                  Y                   Z               Mass
    ------------   -----------------  -----------------  -----------------  -----------------
         P            0.000000000000     0.000000000000     0.044709330411    30.973761998420
         H            0.000000000000     0.000000000000    -1.374064063689     1.007825032230

  Charge       = 1
  Multiplicity = 2
  Basis Set: AUG-CC-PV(5+D)Z
    Blend: AUG-CC-PV(5+D)Z

    Orbital Energies [Eh]
    ---------------------

    Alpha Occupied:

       1A1   -80.362120     2A1    -7.897129     1B2    -5.801281
       1B1    -5.785009     3A1    -5.782938     4A1    -1.141706
       5A1    -0.785588     2B2    -0.708707

    Alpha Virtual:

       2B1    -0.326688     6A1    -0.125226     7A1    -0.095757
       3B2    -0.075874     8A1    -0.075538     3B1    -0.073579
       4B2    -0.042996     4B1    -0.039573     9A1    -0.038519
       1A2    -0.038467    10A1    -0.031493    11A1     0.040542
      12A1     0.055276     5B2     0.068484     5B1     0.069024
       6B2     0.109781     6B1     0.116285    13A1     0.119287
       7B2     0.137391    14A1     0.147253     7B1     0.147333
       2A2     0.148476    15A1     0.149759     3A2     0.170517
      16A1     0.170772     8B2     0.171749     8B1     0.171812
      17A1     0.252852     9B1     0.280701     9B2     0.284466
      18A1     0.343418    19A1     0.346746    10B1     0.404402
      10B2     0.406670     4A2     0.423549    20A1     0.423682
      21A1     0.503836    11B1     0.650844    11B2     0.652979
       5A2     0.656786    22A1     0.656822    12B1     0.663657
      12B2     0.664275     6A2     0.676918    23A1     0.677135
      24A1     0.697264    25A1     0.708498    13B2     0.710994
      13B1     0.711080     7A2     0.717246    26A1     0.719008
      14B2     0.742803    14B1     0.746811    15B1     0.776507
      15B2     0.783754    27A1     0.801433    16B1     0.812789
      16B2     0.817563     8A2     0.832547    28A1     0.833427
      29A1     0.921591    17B1     1.074067    17B2     1.080119
      30A1     1.118421    18B1     1.155633    18B2     1.155640
      31A1     1.206740     9A2     1.248730    32A1     1.248822
      19B1     1.414915    19B2     1.421101    33A1     1.443809
      34A1     1.618858    35A1     1.778666    10A2     1.778707
      20B1     1.796097    20B2     1.806172    21B1     1.857482
      21B2     1.858090    22B1     1.860711    22B2     1.861333
      23B1     1.861369    36A1     1.863781    11A2     1.863798
      37A1     1.874311    23B2     1.878422    12A2     1.897860
      38A1     1.899679    13A2     1.983841    39A1     1.983926
      14A2     2.008082    40A1     2.008095    24B1     2.014853
      24B2     2.014928    25B1     2.083349    25B2     2.097017
      41A1     2.100691    26B1     2.104944    26B2     2.106164
      15A2     2.128587    42A1     2.133113    43A1     2.206139
      27B1     2.241963    27B2     2.256396    44A1     2.507167
      28B1     2.551360    28B2     2.562531    45A1     2.585655
      16A2     2.721358    46A1     2.721939    17A2     2.864582
      47A1     2.864582    48A1     2.911157    29B1     2.991717
      29B2     3.006304    18A2     3.326433    49A1     3.326437
      30B1     3.401409    30B2     3.401415    31B1     3.474327
      31B2     3.481638    50A1     3.524585    32B1     3.655720
      32B2     3.670165    51A1     3.708182    33B1     4.018735
      33B2     4.018735    52A1     4.249304    34B1     4.249376
      34B2     4.249394    19A2     4.256429    53A1     4.260344
      35B1     4.353752    35B2     4.372269    54A1     4.384070
      20A2     4.384458    55A1     4.522941    21A2     4.565470
      56A1     4.568242    36B1     4.585376    36B2     4.601350
      37B1     4.847153    37B2     4.847153    57A1     4.860398
      22A2     4.864827    58A1     4.864828    38B1     4.894497
      38B2     4.919030    23A2     4.927981    59A1     4.927981
      39B1     4.943590    39B2     4.945235    60A1     5.047036
      40B1     5.076453    40B2     5.076530    24A2     5.088533
      61A1     5.094165    41B1     5.236447    41B2     5.253988
      62A1     5.292628    63A1     5.451209    25A2     5.670343
      64A1     5.670458    65A1     5.848608    26A2     5.949120
      66A1     5.949842    42B1     6.012273    42B2     6.025301
      43B1     6.314914    43B2     6.328517    67A1     7.051476
      44B1     7.222344    44B2     7.236511    68A1     8.774095
      45B1    12.675227    45B2    12.675227    69A1    12.749855
      27A2    12.749897    70A1    12.867994    28A2    12.867994
      71A1    12.983702    29A2    12.983737    46B1    13.011127
      46B2    13.016989    47B1    13.021690    47B2    13.021798
      48B1    13.078303    48B2    13.089552    72A1    13.171990
      73A1    13.251296    30A2    13.335507    74A1    13.335520
      75A1    13.421168    49B1    13.960664    49B2    13.964623
      76A1    14.166805    31A2    14.166825    77A1    14.234394
      50B1    14.598603    50B2    14.604361    78A1    15.691555
      51B1    16.670486    51B2    16.672418    52B1    17.795586
      52B2    17.798932    79A1    18.520574    80A1    19.764476
      81A1    53.655307

    Beta Occupied:

       1A1   -80.353187     2A1    -7.887814     1B1    -5.780728
       3A1    -5.778691     1B2    -5.760609     4A1    -1.059749
       5A1    -0.764977

    Beta Virtual:

       2B1    -0.310267     2B2    -0.252837     6A1    -0.119490
       7A1    -0.085705     8A1    -0.074652     3B1    -0.072547
       3B2    -0.064292     4B1    -0.039074     9A1    -0.030776
       4B2    -0.027255     1A2    -0.024320    10A1    -0.021757
      11A1     0.045492    12A1     0.056231     5B1     0.069506
       5B2     0.075239     6B1     0.119318    13A1     0.120983
       6B2     0.139023     7B1     0.148191    14A1     0.151455
       7B2     0.170209     2A2     0.172744    15A1     0.172939
       8B1     0.175281     8B2     0.175465     3A2     0.189071
      16A1     0.192509    17A1     0.254979     9B1     0.281345
       9B2     0.291020    18A1     0.349904    19A1     0.351683
      10B1     0.404816    10B2     0.414018     4A2     0.425535
      20A1     0.425884    21A1     0.507758    11B1     0.652643
      22A1     0.663560     5A2     0.663595    11B2     0.664490
      12B1     0.667207    12B2     0.681846    23A1     0.697046
      24A1     0.700267     6A2     0.708111    25A1     0.727568
      13B1     0.728843     7A2     0.729343    13B2     0.730284
      26A1     0.732555    14B1     0.751050    14B2     0.774479
      15B1     0.778306    15B2     0.802225    27A1     0.804432
      16B1     0.815325    16B2     0.837827     8A2     0.837968
      28A1     0.839802    29A1     0.925506    17B1     1.074449
      17B2     1.086416    30A1     1.126241    18B1     1.157375
      18B2     1.157401    31A1     1.210644     9A2     1.249634
      32A1     1.249830    19B1     1.416208    19B2     1.434110
      33A1     1.446063    34A1     1.629529    35A1     1.787127
      10A2     1.787298    20B1     1.796836    20B2     1.823292
      21B1     1.861773    22B1     1.869776    21B2     1.869787
      36A1     1.870350    11A2     1.870878    37A1     1.878151
      22B2     1.889317    23B1     1.889938    23B2     1.893859
      12A2     1.916408    38A1     1.925825    13A2     1.998197
      39A1     1.999151    24B1     2.028846    24B2     2.029230
      14A2     2.031184    40A1     2.031501    25B1     2.083323
      41A1     2.101970    25B2     2.106391    26B1     2.110833
      26B2     2.113191    15A2     2.134971    42A1     2.144034
      43A1     2.208217    27B1     2.244181    27B2     2.271016
      44A1     2.511142    28B1     2.553093    28B2     2.575248
      45A1     2.589886    16A2     2.726119    46A1     2.727267
      17A2     2.866673    47A1     2.866673    48A1     2.910907
      29B1     2.993083    29B2     3.017953    18A2     3.328235
      49A1     3.328249    30B1     3.403080    30B2     3.403098
      31B1     3.475862    31B2     3.496962    50A1     3.527597
      32B1     3.658532    32B2     3.691296    51A1     3.710533
      33B1     4.022652    33B2     4.022656    52A1     4.255832
      34B1     4.267751    34B2     4.267875    19A2     4.268338
      53A1     4.275124    35B1     4.355994    35B2     4.384857
      54A1     4.389849    20A2     4.390683    55A1     4.528422
      21A2     4.578147    56A1     4.584352    36B1     4.584730
      36B2     4.609467    57A1     4.864073    37B1     4.865503
      37B2     4.865503    58A1     4.879628    22A2     4.879629
      38B1     4.894321    38B2     4.930848    59A1     4.949642
      23A2     4.949642    39B1     4.961489    39B2     4.965959
      60A1     5.047944    40B1     5.087094    40B2     5.087358
      24A2     5.097620    61A1     5.109162    41B1     5.237898
      41B2     5.264742    62A1     5.298362    63A1     5.455321
      25A2     5.671587    64A1     5.671797    65A1     5.849614
      26A2     5.956095    66A1     5.957426    42B1     6.012338
      42B2     6.029271    43B1     6.315095    43B2     6.333902
      67A1     7.053291    44B1     7.222954    44B2     7.242664
      68A1     8.776277    45B1    12.674966    45B2    12.674966
      69A1    12.760717    27A2    12.760915    70A1    12.867973
      28A2    12.867973    71A1    12.983981    29A2    12.984037
      46B1    13.010488    46B2    13.017625    47B1    13.021847
      47B2    13.022030    48B1    13.079821    48B2    13.100169
      72A1    13.172352    73A1    13.254956    30A2    13.335755
      74A1    13.335801    75A1    13.421218    49B1    13.960318
      49B2    13.965270    76A1    14.166350    31A2    14.166377
      77A1    14.233810    50B1    14.598090    50B2    14.605368
      78A1    15.691249    51B1    16.672148    51B2    16.689509
      52B1    17.796125    52B2    17.808361    79A1    18.520171
      80A1    19.767175    81A1    53.661418

    Final Occupation by Irrep:
             A1    A2    B1    B2
    DOCC [     5,    0,    1,    1 ]
    SOCC [     0,    0,    0,    1 ]

  @UHF Final Energy:  -340.94762402852029

   => Energetics <=

    Nuclear Repulsion Energy =              5.5947328819802555
    One-Electron Energy =                -477.4344809095949245
    Two-Electron Energy =                 130.8921239990943661
    Total Energy =                       -340.9476240285202948

  UHF NO Occupations:
  HONO-2 :    4 A1 1.9996608
  HONO-1 :    5 A1 1.9913665
  HONO-0 :    2 B2 1.0000000
  LUNO+0 :    6 A1 0.0086335
  LUNO+1 :    7 A1 0.0003392
  LUNO+2 :    3 B2 0.0000060
  LUNO+3 :    2 B1 0.0000004

Computation Completed

Properties will be evaluated at   0.000000,   0.000000,   0.000000 [a0]

Properties computed using the SCF density matrix

  Nuclear Dipole Moment: [e a0]
     X:     0.0000      Y:     0.0000      Z:    -1.3293

  Electronic Dipole Moment: [e a0]
     X:     0.0000      Y:     0.0000      Z:     0.9644

  Dipole Moment: [e a0]
     X:     0.0000      Y:     0.0000      Z:    -0.3649     Total:     0.3649

  Dipole Moment: [D]
     X:     0.0000      Y:     0.0000      Z:    -0.9275     Total:     0.9275

*** tstop() called on n412-045.vsc4.prov at Fri Jan 22 04:39:43 2021
Module time:
	user time   =     146.72 seconds =       2.45 minutes
	system time =      10.39 seconds =       0.17 minutes
	total time  =         95 seconds =       1.58 minutes
Total time:
	user time   =     146.72 seconds =       2.45 minutes
	system time =      10.39 seconds =       0.17 minutes
	total time  =         95 seconds =       1.58 minutes

*** tstart() called on n412-045.vsc4.prov
*** at Fri Jan 22 04:39:43 2021

	Wfn Parameters:
	--------------------
	Wavefunction         = CCSD_T
	Number of irreps     = 4
	Number of MOs        = 216
	Number of active MOs = 211
	AO-Basis             = NONE
	Semicanonical        = false
	Reference            = UHF
	Print Level          = 1

	IRREP	# MOs	# FZDC	# DOCC	# SOCC	# VIRT	# FZVR
	-----	-----	------	------	------	------	------
	 A1	   81	    3	    2	    0	    76	    0
	 A2	   31	    0	    0	    0	    31	    0
	 B1	   52	    1	    0	    0	    51	    0
	 B2	   52	    1	    0	    1	    50	    0
	Transforming integrals...
	IWL integrals will be deleted.
	(OO|OO)...
	Presorting SO-basis two-electron integrals.
	Sorting File: SO Ints (nn|nn) nbuckets = 1
	Constructing frozen core operators
	Starting AA/AB first half-transformation.
	Sorting AA/AB half-transformed integrals.
	Starting BB first half-transformation.
	Sorting BB half-transformed integrals.
	First half integral transformation complete.
	Starting AA second half-transformation.
	Starting AB second half-transformation.
	Starting BB second half-transformation.
	Two-electron integral transformation complete.
	(OO|OV)...
	Starting AA second half-transformation.
	Starting AB second half-transformation.
	Starting BB second half-transformation.
	Two-electron integral transformation complete.
	(OO|VV)...
	Starting AA second half-transformation.
	Starting AB second half-transformation.
	Starting BB second half-transformation.
	Two-electron integral transformation complete.
	(OV|OO)...
	Starting AA/AB first half-transformation.
	Sorting AA/AB half-transformed integrals.
	Starting BB first half-transformation.
	Sorting BB half-transformed integrals.
	First half integral transformation complete.
	Starting AA second half-transformation.
	Starting AB second half-transformation.
	Starting BB second half-transformation.
	Two-electron integral transformation complete.
	(OV|OV)...
	Starting AA second half-transformation.
	Starting AB second half-transformation.
	Starting BB second half-transformation.
	Two-electron integral transformation complete.
	(OV|VV)...
	Starting AA second half-transformation.
	Starting AB second half-transformation.
	Starting BB second half-transformation.
	Two-electron integral transformation complete.
	(VV|OO)...
	Starting AA/AB first half-transformation.
	Sorting AA/AB half-transformed integrals.
	Starting BB first half-transformation.
	Sorting BB half-transformed integrals.
	First half integral transformation complete.
	Starting AA second half-transformation.
	Starting AB second half-transformation.
	Starting BB second half-transformation.
	Two-electron integral transformation complete.
	(VV|OV)...
	Starting AA second half-transformation.
	Starting AB second half-transformation.
	Starting BB second half-transformation.
	Two-electron integral transformation complete.
	(VV|VV)...
	Starting AA second half-transformation.
	Starting AB second half-transformation.
	Starting BB second half-transformation.
	Two-electron integral transformation complete.
	Frozen core energy     =   -338.09296568264483

	Size of irrep 0 of <AB|CD> integrals:     33.814 (MW) /    270.514 (MB)
	Size of irrep 1 of <AB|CD> integrals:     24.069 (MW) /    192.551 (MB)
	Size of irrep 2 of <AB|CD> integrals:     29.441 (MW) /    235.532 (MB)
	Size of irrep 3 of <AB|CD> integrals:     28.955 (MW) /    231.641 (MB)
	Total:                                   116.280 (MW) /    930.238 (MB)

	Size of irrep 0 of <ab|cd> integrals:     34.398 (MW) /    275.186 (MB)
	Size of irrep 1 of <ab|cd> integrals:     24.572 (MW) /    196.575 (MB)
	Size of irrep 2 of <ab|cd> integrals:     29.779 (MW) /    238.231 (MB)
	Size of irrep 3 of <ab|cd> integrals:     29.779 (MW) /    238.231 (MB)
	Total:                                   118.528 (MW) /    948.222 (MB)

	Size of irrep 0 of <Ab|Cd> integrals:    141.325 (MW) /   1130.596 (MB)
	Size of irrep 1 of <Ab|Cd> integrals:     97.279 (MW) /    778.230 (MB)
	Size of irrep 2 of <Ab|Cd> integrals:    118.440 (MW) /    947.518 (MB)
	Size of irrep 3 of <Ab|Cd> integrals:    117.462 (MW) /    939.698 (MB)
	Total:                                   474.505 (MW) /   3796.042 (MB)

	Size of irrep 0 of <IA|BC> integrals:      2.391 (MW) /     19.130 (MB)
	Size of irrep 1 of <IA|BC> integrals:      1.109 (MW) /      8.870 (MB)
	Size of irrep 2 of <IA|BC> integrals:      1.443 (MW) /     11.547 (MB)
	Size of irrep 3 of <IA|BC> integrals:      1.894 (MW) /     15.153 (MB)
	Total:                                     6.837 (MW) /     54.700 (MB)

	Size of irrep 0 of <ia|bc> integrals:      1.815 (MW) /     14.518 (MB)
	Size of irrep 1 of <ia|bc> integrals:      0.615 (MW) /      4.917 (MB)
	Size of irrep 2 of <ia|bc> integrals:      1.113 (MW) /      8.906 (MB)
	Size of irrep 3 of <ia|bc> integrals:      1.113 (MW) /      8.906 (MB)
	Total:                                     4.656 (MW) /     37.247 (MB)

	Size of irrep 0 of <Ia|Bc> integrals:      2.413 (MW) /     19.306 (MB)
	Size of irrep 1 of <Ia|Bc> integrals:      1.115 (MW) /      8.916 (MB)
	Size of irrep 2 of <Ia|Bc> integrals:      1.447 (MW) /     11.580 (MB)
	Size of irrep 3 of <Ia|Bc> integrals:      1.929 (MW) /     15.433 (MB)
	Total:                                     6.904 (MW) /     55.235 (MB)

	Size of irrep 0 of <iA|bC> integrals:      1.807 (MW) /     14.456 (MB)
	Size of irrep 1 of <iA|bC> integrals:      0.612 (MW) /      4.892 (MB)
	Size of irrep 2 of <iA|bC> integrals:      1.110 (MW) /      8.881 (MB)
	Size of irrep 3 of <iA|bC> integrals:      1.084 (MW) /      8.670 (MB)
	Total:                                     4.612 (MW) /     36.899 (MB)

	Size of irrep 0 of tIjAb amplitudes:       0.048 (MW) /      0.380 (MB)
	Size of irrep 1 of tIjAb amplitudes:       0.000 (MW) /      0.000 (MB)
	Size of irrep 2 of tIjAb amplitudes:       0.000 (MW) /      0.000 (MB)
	Size of irrep 3 of tIjAb amplitudes:       0.022 (MW) /      0.173 (MB)
	Total:                                     0.069 (MW) /      0.554 (MB)

	Nuclear Rep. energy          =      5.59473288198026
	SCF energy                   =   -340.94762402852029
	One-electron energy          =    -12.43805501496171
	Two-electron (AA) energy     =      1.03254950317390
	Two-electron (BB) energy     =      0.31923663564444
	Two-electron (AB) energy     =      2.63687764828380
	Two-electron energy          =      3.98866378710214
	Reference energy             =   -340.94762402852416

*** tstop() called on n412-045.vsc4.prov at Fri Jan 22 04:42:32 2021
Module time:
	user time   =      52.82 seconds =       0.88 minutes
	system time =      36.29 seconds =       0.60 minutes
	total time  =        169 seconds =       2.82 minutes
Total time:
	user time   =     199.54 seconds =       3.33 minutes
	system time =      46.68 seconds =       0.78 minutes
	total time  =        264 seconds =       4.40 minutes
            **************************
            *                        *
            *        CCENERGY        *
            *                        *
            **************************

    Nuclear Rep. energy (wfn)     =    5.594732881980256
    SCF energy          (wfn)     = -340.947624028520295
    Reference energy    (file100) = -340.947624028524160

    Input parameters:
    -----------------
    Wave function   =     CCSD_T
    Reference wfn   =     UHF
    Brueckner       =     No
    Memory (Mbytes) =     250000.0
    Maxiter         =     50
    R_Convergence   =     1.0e-07
    E_Convergence   =     1.0e-06
    Restart         =     Yes
    DIIS            =     Yes
    AO Basis        =     NONE
    ABCD            =     NEW
    Cache Level     =     2
    Cache Type      =     LRU
    Print Level     =     1
    Num. of threads =     48
    # Amps to Print =     10
    Print MP2 Amps? =     No
    Analyze T2 Amps =     No
    Print Pair Ener =     No

      * MP2 total energy                      = -341.046574104293256
      * CCSD total energy                     = -341.069498520440845
      * CCSD(T) total energy                     = -341.073134007967212
*** Psi4 exiting successfully. Buy a developer a beer!
