                               Psi4 1.4a3.dev88

  ==> Input File <==

--------------------------------------------------------------------------
# Any line starting with the # character is a comment line
memory 250000 mb
molecule molecule{
1 2
P          0.0000000000        0.0000000000        0.0447142727
H          0.0000000000        0.0000000000       -1.3740591214
}

set {
  reference uhf
  basis aug-cc-pV(6+d)Z
  scf_type OUT_OF_CORE
  freeze_core true
}

energy('ccsd(t)')
--------------------------------------------------------------------------

    Molecular point group: c2v

    Geometry (in Angstrom), charge = 1, multiplicity = 2:

       Center              X                  Y                   Z               Mass
    ------------   -----------------  -----------------  -----------------  -----------------
         P            0.000000000000     0.000000000000     0.044709330411    30.973761998420
         H            0.000000000000     0.000000000000    -1.374064063689     1.007825032230

  Charge       = 1
  Multiplicity = 2
  Basis Set: AUG-CC-PV(6+D)Z
    Blend: AUG-CC-PV(6+D)Z

    Orbital Energies [Eh]
    ---------------------

    Alpha Occupied:

       1A1   -80.361902     2A1    -7.897085     1B1    -5.801322
       1B2    -5.784796     3A1    -5.782933     4A1    -1.141689
       5A1    -0.785623     2B1    -0.708728

    Alpha Virtual:

       2B2    -0.326630     6A1    -0.125336     7A1    -0.096414
       3B1    -0.078155     8A1    -0.077871     3B2    -0.076226
       4B1    -0.045392     4B2    -0.042319     9A1    -0.041681
       1A2    -0.041152    10A1    -0.036886    11A1     0.023220
      12A1     0.040862     5B1     0.050383     5B2     0.053022
       6B1     0.063227     6B2     0.065169    13A1     0.081217
      14A1     0.097328     7B1     0.117736     7B2     0.127948
       2A2     0.128397    15A1     0.129595     3A2     0.149145
      16A1     0.149261     8B1     0.150684     8B2     0.150708
      17A1     0.218546     9B2     0.246945     9B1     0.251420
      18A1     0.272501    19A1     0.308172     4A2     0.318714
      20A1     0.319643    10B2     0.324313    10B1     0.326625
      21A1     0.401408    11B1     0.489261     5A2     0.489658
      22A1     0.489660    11B2     0.489753    12B1     0.494274
      12B2     0.500006    23A1     0.501407    13B1     0.561104
      13B2     0.562438    24A1     0.571706     6A2     0.571824
      25A1     0.595418    14B2     0.596707    14B1     0.602414
      26A1     0.622472     7A2     0.642887    27A1     0.644138
      15B1     0.655540    15B2     0.655557    28A1     0.673952
       8A2     0.688610    29A1     0.689004    16B2     0.695944
      16B1     0.701127    17B2     0.895237    17B1     0.900978
      30A1     0.914044     9A2     0.968013    31A1     0.968137
      18B2     0.981367    18B1     0.981372    32A1     1.013232
      19B2     1.122214    19B1     1.128587    33A1     1.144196
      34A1     1.270527    20B2     1.357550    20B1     1.357550
      35A1     1.360508    10A2     1.360508    21B2     1.439779
      21B1     1.452567    36A1     1.459863    11A2     1.459895
      22B2     1.465707    22B1     1.467309    37A1     1.467918
      12A2     1.483500    38A1     1.485683    23B2     1.547840
      39A1     1.552827    13A2     1.556271    23B1     1.558048
      40A1     1.572178    24B2     1.578741    24B1     1.579695
      25B2     1.589382    25B1     1.599168    41A1     1.655438
      14A2     1.657234    42A1     1.701341    26B2     1.706734
      26B1     1.706742    15A2     1.728915    43A1     1.729121
      27B2     1.820318    27B1     1.828681    44A1     1.844131
      28B2     1.928995    28B1     1.938602    45A1     2.106898
      46A1     2.140750    16A2     2.140750    47A1     2.173050
      17A2     2.173573    29B2     2.189091    29B1     2.201202
      48A1     2.232028    18A2     2.373257    49A1     2.373359
      50A1     2.442918    30B2     2.451692    30B1     2.451717
      31B2     2.490559    31B1     2.500144    51A1     2.664992
      32B2     2.878291    32B1     2.895127    33B2     3.014576
      33B1     3.014580    52A1     3.073849    34B2     3.088878
      34B1     3.088878    19A2     3.094365    53A1     3.094365
      20A2     3.195391    54A1     3.196052    55A1     3.274944
      21A2     3.274945    35B2     3.293417    35B1     3.293674
      36B2     3.336203    56A1     3.345976    22A2     3.345977
      36B1     3.352894    37B2     3.384763    37B1     3.384763
      57A1     3.405165    23A2     3.405175    58A1     3.446068
      59A1     3.478956    24A2     3.482830    60A1     3.525562
      38B2     3.535428    38B1     3.547499    39B2     3.556463
      39B1     3.567745    61A1     3.618318    25A2     3.619227
      40B2     3.717551    40B1     3.741121    62A1     3.766965
      63A1     3.900477    26A2     3.917026    41B2     3.917769
      41B1     3.917779    64A1     3.925463    42B2     4.061575
      42B1     4.073512    65A1     4.149916    27A2     4.150974
      43B2     4.210487    43B1     4.229539    44B2     4.254453
      44B1     4.254453    66A1     4.261662    45B2     4.330753
      45B1     4.330762    28A2     4.386556    67A1     4.386604
      68A1     4.452338    69A1     4.723492    29A2     4.899162
      70A1     4.899162    46B2     4.935248    46B1     4.950218
      30A2     5.107483    71A1     5.107501    47B2     5.131719
      47B1     5.140538    72A1     5.149672    48B2     5.228979
      48B1     5.228983    73A1     5.379176    49B2     5.499882
      49B1     5.517814    31A2     5.542887    74A1     5.543449
      50B2     6.198620    50B1     6.213737    75A1     6.306444
      51B2     6.532966    51B1     6.548815    76A1     6.741634
      32A2     6.741635    52B2     6.766327    52B1     6.766541
      53B2     6.825626    53B1     6.845945    77A1     6.891510
      33A2     6.902395    78A1     6.922684    54B2     6.981135
      54B1     6.981153    34A2     7.006836    79A1     7.006836
      80A1     7.026542    35A2     7.143612    81A1     7.143612
      55B2     7.167366    55B1     7.167366    36A2     7.253827
      82A1     7.254226    37A2     7.422525    83A1     7.422525
      56B2     7.517729    56B1     7.517730    84A1     7.572769
      38A2     7.572774    57B2     7.574885    57B1     7.601562
      85A1     7.608048    58B2     7.655219    58B1     7.655776
      86A1     7.771770    39A2     7.776602    87A1     7.830059
      59B2     8.081238    59B1     8.107302    60B2     8.360550
      60B1     8.360577    88A1     8.505886    61B2     8.518111
      61B1     8.539827    40A2     8.566066    89A1     8.566071
      62B2     8.688720    62B1     8.688759    90A1     8.903717
      41A2     8.907135    91A1     8.913927    42A2     9.377648
      92A1     9.377692    93A1     9.568176    63B2     9.695185
      63B1     9.711046    94A1     9.729580    64B2     9.731292
      64B1     9.731293    65B2    10.136439    65B1    10.149565
      43A2    10.162949    95A1    10.163043    96A1    10.504529
      44A2    10.609976    97A1    10.610060    66B2    10.755558
      66B1    10.765868    98A1    11.644726    67B2    12.068030
      67B1    12.082891    99A1    13.149246    68B2    13.315848
      68B1    13.320632   100A1    15.250874    69B1    17.226482
      69B2    17.226482    45A2    17.351497   101A1    17.351497
      70B2    17.473033    70B1    17.473033   102A1    17.732303
      46A2    17.732314   103A1    18.196072    71B2    18.266828
      71B1    18.273155    47A2    20.022940   104A1    20.022940
      72B2    20.344796    72B1    20.344796   105A1    20.904283
      48A2    20.904288    73B2    21.189527    73B1    21.193411
     106A1    21.283594   107A1    22.099282    49A2    22.769318
     108A1    22.769323    74B1    23.760638    74B2    23.760638
     109A1    24.018385    75B2    24.141708    75B1    24.145611
     110A1    24.349703    50A2    24.349704    76B2    24.511830
      76B1    24.515300   111A1    24.662127    51A2    25.586100
     112A1    25.586138    77B2    25.889428    77B1    25.894997
      78B2    26.649241    78B1    26.653337   113A1    26.669851
     114A1    30.703245    79B2    34.535833    79B1    34.537653
     115A1    36.159620   116A1   213.974063

    Beta Occupied:

       1A1   -80.352996     2A1    -7.887686     1B2    -5.780509
       3A1    -5.778681     1B1    -5.760480     4A1    -1.059720
       5A1    -0.765006

    Beta Virtual:

       2B2    -0.310211     2B1    -0.252820     6A1    -0.119659
       7A1    -0.086500     8A1    -0.077080     3B2    -0.075312
       3B1    -0.068047     4B2    -0.041886     9A1    -0.036442
       4B1    -0.030827     1A2    -0.028224    10A1    -0.026311
      11A1     0.026670    12A1     0.042229     5B2     0.053622
       5B1     0.058543     6B2     0.067190     6B1     0.081992
      13A1     0.083488    14A1     0.101315     7B2     0.128788
       7B1     0.149895    15A1     0.150477     2A2     0.150486
       8B2     0.153556     8B1     0.153641     3A2     0.166059
      16A1     0.167670    17A1     0.220337     9B2     0.247398
       9B1     0.255809    18A1     0.277963    19A1     0.312411
       4A2     0.321790    20A1     0.322929    10B2     0.324629
      10B1     0.331644    21A1     0.406688    11B2     0.491990
      11B1     0.492213    22A1     0.492628     5A2     0.492628
      23A1     0.503645    12B2     0.504533    12B1     0.532434
      13B2     0.563456    24A1     0.584537     6A2     0.586725
      13B1     0.588473    14B2     0.597120    25A1     0.597225
      14B1     0.609166    26A1     0.626027    27A1     0.661103
       7A2     0.662046    15B2     0.672176    15B1     0.672729
      28A1     0.683551    16B2     0.697642     8A2     0.702072
      29A1     0.706688    16B1     0.716406    17B2     0.895813
      17B1     0.905872    30A1     0.918213     9A2     0.969686
      31A1     0.970143    18B2     0.982768    18B1     0.982792
      32A1     1.020029    19B2     1.123376    19B1     1.138487
      33A1     1.146077    34A1     1.277223    20B2     1.362951
      20B1     1.362951    35A1     1.364778    10A2     1.364778
      21B2     1.440875    21B1     1.463118    36A1     1.470219
      11A2     1.472436    37A1     1.473667    22B2     1.474939
      22B1     1.480151    12A2     1.488806    38A1     1.493124
      23B2     1.548742    39A1     1.554952    13A2     1.561158
      23B1     1.567274    40A1     1.576895    24B2     1.581683
      24B1     1.585246    25B2     1.591127    25B1     1.610253
      41A1     1.663805    14A2     1.671756    42A1     1.715876
      26B2     1.735138    26B1     1.735475    15A2     1.748179
      43A1     1.749504    27B2     1.824146    44A1     1.846200
      27B1     1.863666    28B2     1.931115    28B1     1.953586
      45A1     2.112295    46A1     2.142396    16A2     2.142396
      47A1     2.176997    17A2     2.178081    29B2     2.189768
      29B1     2.210686    48A1     2.236798    18A2     2.375199
      49A1     2.375490    50A1     2.444882    30B2     2.452258
      30B1     2.452296    31B2     2.491106    31B1     2.503553
      51A1     2.667918    32B2     2.880644    32B1     2.911693
      33B2     3.019583    33B1     3.019600    52A1     3.080052
      34B2     3.095724    34B1     3.095724    19A2     3.102676
      53A1     3.102676    20A2     3.203702    54A1     3.205335
      55A1     3.294471    21A2     3.294474    35B2     3.305938
      35B1     3.307584    36B2     3.339709    56A1     3.353885
      22A2     3.353890    36B1     3.365985    37B2     3.399292
      37B1     3.399292    57A1     3.414613    23A2     3.414662
      58A1     3.452226    59A1     3.483224    24A2     3.490063
      60A1     3.533426    38B2     3.535309    38B1     3.552938
      39B2     3.564584    39B1     3.579485    61A1     3.625569
      25A2     3.627089    40B2     3.718689    40B1     3.748758
      62A1     3.772940    63A1     3.901607    26A2     3.929748
      41B2     3.937991    41B1     3.938037    64A1     3.943035
      42B2     4.061812    42B1     4.078473    65A1     4.156982
      27A2     4.159106    43B2     4.211864    43B1     4.243164
      44B2     4.255991    44B1     4.255991    66A1     4.269716
      45B2     4.335654    45B1     4.335693    28A2     4.390337
      67A1     4.390555    68A1     4.453138    69A1     4.726617
      29A2     4.901413    70A1     4.901413    46B2     4.936486
      46B1     4.964068    30A2     5.108963    71A1     5.109019
      47B2     5.131777    47B1     5.144075    72A1     5.153094
      48B2     5.230122    48B1     5.230128    73A1     5.380506
      49B2     5.500876    49B1     5.523781    31A2     5.548813
      74A1     5.549844    50B2     6.201200    50B1     6.231420
      75A1     6.308324    51B2     6.533534    51B1     6.559737
      76A1     6.757083    32A2     6.757089    52B2     6.776717
      52B1     6.777445    53B2     6.828085    53B1     6.855504
      77A1     6.892412    33A2     6.908540    78A1     6.933713
      54B2     6.986078    54B1     6.986112    34A2     7.010646
      79A1     7.010647    80A1     7.028343    35A2     7.157628
      81A1     7.157628    55B2     7.178960    55B1     7.178961
      36A2     7.259818    82A1     7.260590    37A2     7.430778
      83A1     7.430779    56B2     7.533370    56B1     7.533377
      57B2     7.574265    84A1     7.583161    38A2     7.583181
      57B1     7.608721    85A1     7.611959    58B2     7.665097
      58B1     7.666211    86A1     7.775071    39A2     7.783197
      87A1     7.837766    59B2     8.083089    59B1     8.118227
      60B2     8.365477    60B1     8.365542    88A1     8.508829
      61B2     8.518961    61B1     8.546877    89A1     8.571480
      40A2     8.571543    62B2     8.696657    62B1     8.696736
      90A1     8.908306    41A2     8.917366    91A1     8.922821
      42A2     9.378562    92A1     9.378628    93A1     9.572786
      63B2     9.696012    63B1     9.718896    94A1     9.730481
      64B2     9.731537    64B1     9.731538    65B2    10.136252
      65B1    10.152445    43A2    10.166148    95A1    10.166289
      96A1    10.507250    44A2    10.610608    97A1    10.610730
      66B2    10.755573    66B1    10.768159    98A1    11.645263
      67B2    12.068401    67B1    12.086777    99A1    13.153722
      68B2    13.314953    68B1    13.320366   100A1    15.251039
      69B2    17.226492    69B1    17.226492    45A2    17.351622
     101A1    17.351622    70B2    17.473220    70B1    17.473220
     102A1    17.732585    46A2    17.732599   103A1    18.196343
      71B2    18.266561    71B1    18.273809    47A2    20.022725
     104A1    20.022725    72B2    20.344696    72B1    20.344696
     105A1    20.904189    48A2    20.904195    73B2    21.189162
      73B1    21.193844   106A1    21.283434   107A1    22.098523
      49A2    22.768814   108A1    22.768820    74B2    23.760238
      74B1    23.760238   109A1    24.017974    75B2    24.141193
      75B1    24.146175   110A1    24.349315    50A2    24.349317
      76B2    24.511336    76B1    24.515252   111A1    24.662383
      51A2    25.598728   112A1    25.598742    77B2    25.891676
      77B1    25.909358    78B2    26.651841    78B1    26.672711
     113A1    26.674198   114A1    30.705502    79B2    34.535058
      79B1    34.537032   115A1    36.159015   116A1   213.977558

    Final Occupation by Irrep:
             A1    A2    B1    B2
    DOCC [     5,    0,    1,    1 ]
    SOCC [     0,    0,    1,    0 ]

  @UHF Final Energy:  -340.94778784969054

   => Energetics <=

    Nuclear Repulsion Energy =              5.5947328819802555
    One-Electron Energy =                -477.4358852095868997
    Two-Electron Energy =                 130.8933644779161227
    Total Energy =                       -340.9477878496905419

  UHF NO Occupations:
  HONO-2 :    4 A1 1.9996608
  HONO-1 :    5 A1 1.9913506
  HONO-0 :    2 B1 1.0000000
  LUNO+0 :    6 A1 0.0086494
  LUNO+1 :    7 A1 0.0003392
  LUNO+2 :    3 B1 0.0000063
  LUNO+3 :    2 B2 0.0000004

Computation Completed

Properties will be evaluated at   0.000000,   0.000000,   0.000000 [a0]

Properties computed using the SCF density matrix

  Nuclear Dipole Moment: [e a0]
     X:     0.0000      Y:     0.0000      Z:    -1.3293

  Electronic Dipole Moment: [e a0]
     X:     0.0000      Y:     0.0000      Z:     0.9644

  Dipole Moment: [e a0]
     X:     0.0000      Y:     0.0000      Z:    -0.3648     Total:     0.3648

  Dipole Moment: [D]
     X:     0.0000      Y:     0.0000      Z:    -0.9273     Total:     0.9273

*** tstop() called on n412-047.vsc4.prov at Sun Jan 24 03:06:53 2021
Module time:
	user time   =     516.14 seconds =       8.60 minutes
	system time =      35.37 seconds =       0.59 minutes
	total time  =        537 seconds =       8.95 minutes
Total time:
	user time   =     516.14 seconds =       8.60 minutes
	system time =      35.37 seconds =       0.59 minutes
	total time  =        537 seconds =       8.95 minutes

*** tstart() called on n412-047.vsc4.prov
*** at Sun Jan 24 03:06:53 2021

	Wfn Parameters:
	--------------------
	Wavefunction         = CCSD_T
	Number of irreps     = 4
	Number of MOs        = 325
	Number of active MOs = 320
	AO-Basis             = NONE
	Semicanonical        = false
	Reference            = UHF
	Print Level          = 1

	IRREP	# MOs	# FZDC	# DOCC	# SOCC	# VIRT	# FZVR
	-----	-----	------	------	------	------	------
	 A1	   116	    3	    2	    0	    111	    0
	 A2	   51	    0	    0	    0	    51	    0
	 B1	   79	    1	    0	    1	    77	    0
	 B2	   79	    1	    0	    0	    78	    0
	Transforming integrals...
	IWL integrals will be deleted.
	(OO|OO)...
	Presorting SO-basis two-electron integrals.
	Sorting File: SO Ints (nn|nn) nbuckets = 1
	Constructing frozen core operators
	Starting AA/AB first half-transformation.
	Sorting AA/AB half-transformed integrals.
	Starting BB first half-transformation.
	Sorting BB half-transformed integrals.
	First half integral transformation complete.
	Starting AA second half-transformation.
	Starting AB second half-transformation.
	Starting BB second half-transformation.
	Two-electron integral transformation complete.
	(OO|OV)...
	Starting AA second half-transformation.
	Starting AB second half-transformation.
	Starting BB second half-transformation.
	Two-electron integral transformation complete.
	(OO|VV)...
	Starting AA second half-transformation.
	Starting AB second half-transformation.
	Starting BB second half-transformation.
	Two-electron integral transformation complete.
	(OV|OO)...
	Starting AA/AB first half-transformation.
	Sorting AA/AB half-transformed integrals.
	Starting BB first half-transformation.
	Sorting BB half-transformed integrals.
	First half integral transformation complete.
	Starting AA second half-transformation.
	Starting AB second half-transformation.
	Starting BB second half-transformation.
	Two-electron integral transformation complete.
	(OV|OV)...
	Starting AA second half-transformation.
	Starting AB second half-transformation.
	Starting BB second half-transformation.
	Two-electron integral transformation complete.
	(OV|VV)...
	Starting AA second half-transformation.
	Starting AB second half-transformation.
	Starting BB second half-transformation.
	Two-electron integral transformation complete.
	(VV|OO)...
	Starting AA/AB first half-transformation.
	Sorting AA/AB half-transformed integrals.
	Starting BB first half-transformation.
	Sorting BB half-transformed integrals.
	First half integral transformation complete.
	Starting AA second half-transformation.
	Starting AB second half-transformation.
	Starting BB second half-transformation.
	Two-electron integral transformation complete.
	(VV|OV)...
	Starting AA second half-transformation.
	Starting AB second half-transformation.
	Starting BB second half-transformation.
	Two-electron integral transformation complete.
	(VV|VV)...
	Starting AA second half-transformation.
	Starting AB second half-transformation.
	Starting BB second half-transformation.
	Two-electron integral transformation complete.
	Frozen core energy     =   -338.09297827784019

	Size of irrep 0 of <AB|CD> integrals:    177.129 (MW) /   1417.036 (MB)
	Size of irrep 1 of <AB|CD> integrals:    136.119 (MW) /   1088.951 (MB)
	Size of irrep 2 of <AB|CD> integrals:    156.876 (MW) /   1255.005 (MB)
	Size of irrep 3 of <AB|CD> integrals:    158.382 (MW) /   1267.058 (MB)
	Total:                                   628.506 (MW) /   5028.050 (MB)

	Size of irrep 0 of <ab|cd> integrals:    179.185 (MW) /   1433.480 (MB)
	Size of irrep 1 of <ab|cd> integrals:    137.945 (MW) /   1103.560 (MB)
	Size of irrep 2 of <ab|cd> integrals:    159.668 (MW) /   1277.348 (MB)
	Size of irrep 3 of <ab|cd> integrals:    159.668 (MW) /   1277.348 (MB)
	Total:                                   636.467 (MW) /   5091.736 (MB)

	Size of irrep 0 of <Ab|Cd> integrals:    729.648 (MW) /   5837.185 (MB)
	Size of irrep 1 of <Ab|Cd> integrals:    548.122 (MW) /   4384.974 (MB)
	Size of irrep 2 of <Ab|Cd> integrals:    633.076 (MW) /   5064.607 (MB)
	Size of irrep 3 of <Ab|Cd> integrals:    636.099 (MW) /   5088.791 (MB)
	Total:                                  2546.945 (MW) /  20375.557 (MB)

	Size of irrep 0 of <IA|BC> integrals:      8.054 (MW) /     64.429 (MB)
	Size of irrep 1 of <IA|BC> integrals:      4.200 (MW) /     33.601 (MB)
	Size of irrep 2 of <IA|BC> integrals:      6.638 (MW) /     53.106 (MB)
	Size of irrep 3 of <IA|BC> integrals:      5.210 (MW) /     41.682 (MB)
	Total:                                    24.102 (MW) /    192.817 (MB)

	Size of irrep 0 of <ia|bc> integrals:      6.014 (MW) /     48.112 (MB)

      * MP2 total energy                      = -341.047953254444906
      * CCSD total energy                     = -341.070229649495616
      * CCSD(T) total energy                     = -341.073904564245765
*** Psi4 exiting successfully. Buy a developer a beer!
