                               Psi4 1.4a3.dev88

  ==> Input File <==

--------------------------------------------------------------------------
# Any line starting with the # character is a comment line
memory 250000 mb
molecule molecule{
1 2
P          0.0000000000        0.0000000000        0.0447142727
H          0.0000000000        0.0000000000       -1.3740591214
}

set {
  reference uhf
  basis aug-cc-pV(d+d)Z
  scf_type OUT_OF_CORE
  freeze_core true
}

energy('ccsd(t)')
--------------------------------------------------------------------------

    Molecular point group: c2v

    Geometry (in Angstrom), charge = 1, multiplicity = 2:

       Center              X                  Y                   Z               Mass
    ------------   -----------------  -----------------  -----------------  -----------------
         P            0.000000000000     0.000000000000     0.044709330411    30.973761998420
         H            0.000000000000     0.000000000000    -1.374064063689     1.007825032230

  Charge       = 1
  Multiplicity = 2
  Basis Set: AUG-CC-PV(D+D)Z
    Blend: AUG-CC-PV(D+D)Z

    Orbital Energies [Eh]
    ---------------------

    Alpha Occupied:

       1A1   -80.371405     2A1    -7.902819     1B1    -5.805729
       1B2    -5.792037     3A1    -5.788635     4A1    -1.143639
       5A1    -0.785332     2B1    -0.707009

    Alpha Virtual:

       2B2    -0.328451     6A1    -0.124265     7A1    -0.083866
       3B1    -0.063554     8A1    -0.060560     3B2    -0.059563
       9A1    -0.002123     4B1     0.008180     4B2     0.020589
       1A2     0.021541    10A1     0.023839    11A1     0.179612
       5B2     0.258181     5B1     0.260889    12A1     0.311183
       6B1     0.409650     6B2     0.431352    13A1     0.453117
      14A1     0.496461     2A2     0.525623    15A1     0.526717
       7B1     0.529868     7B2     0.538291    16A1     0.828870
      17A1     0.883568     8B2     1.594549     8B1     1.598529
      18A1     1.976524    19A1     3.943402     3A2     3.944258
       9B2     3.981056     9B1     3.998823    20A1     4.067793

    Beta Occupied:

       1A1   -80.363420     2A1    -7.893502     1B2    -5.788025
       3A1    -5.784333     1B1    -5.767760     4A1    -1.061070
       5A1    -0.763849

    Beta Virtual:

       2B2    -0.310694     2B1    -0.254425     6A1    -0.118007
       7A1    -0.073627     3B2    -0.057686     8A1    -0.056950
       3B1    -0.045074     9A1     0.003312     4B2     0.022795
       4B1     0.045989     1A2     0.060112    10A1     0.061642
      11A1     0.187071     5B2     0.259086     5B1     0.271527
      12A1     0.320738     6B2     0.438817    13A1     0.456315
       6B1     0.477922    14A1     0.503546     7B2     0.541957
       2A2     0.576113     7B1     0.577044    15A1     0.578096
      16A1     0.836139    17A1     0.900521     8B2     1.593287
       8B1     1.604658    18A1     1.980676    19A1     3.951175
       3A2     3.952891     9B2     3.982177     9B1     4.007488
      20A1     4.072286

    Final Occupation by Irrep:
             A1    A2    B1    B2
    DOCC [     5,    0,    1,    1 ]
    SOCC [     0,    0,    1,    0 ]

  @UHF Final Energy:  -340.93458550295134

   => Energetics <=

    Nuclear Repulsion Energy =              5.5947328819802555
    One-Electron Energy =                -477.3400723580284648
    Two-Electron Energy =                 130.8107539730968938
    Total Energy =                       -340.9345855029513359

  UHF NO Occupations:
  HONO-2 :    4 A1 1.9997690
  HONO-1 :    5 A1 1.9923750
  HONO-0 :    2 B1 1.0000000
  LUNO+0 :    6 A1 0.0076250
  LUNO+1 :    7 A1 0.0002310
  LUNO+2 :    3 B1 0.0000009
  LUNO+3 :    8 A1 0.0000001

Computation Completed

Properties will be evaluated at   0.000000,   0.000000,   0.000000 [a0]

Properties computed using the SCF density matrix

  Nuclear Dipole Moment: [e a0]
     X:     0.0000      Y:     0.0000      Z:    -1.3293

  Electronic Dipole Moment: [e a0]
     X:     0.0000      Y:     0.0000      Z:     0.9557

  Dipole Moment: [e a0]
     X:     0.0000      Y:     0.0000      Z:    -0.3736     Total:     0.3736

  Dipole Moment: [D]
     X:     0.0000      Y:     0.0000      Z:    -0.9496     Total:     0.9496

*** tstop() called on n412-039.vsc4.prov at Tue Jan 26 18:33:48 2021
Module time:
	user time   =      17.15 seconds =       0.29 minutes
	system time =       1.54 seconds =       0.03 minutes
	total time  =          3 seconds =       0.05 minutes
Total time:
	user time   =      17.15 seconds =       0.29 minutes
	system time =       1.54 seconds =       0.03 minutes
	total time  =          3 seconds =       0.05 minutes

*** tstart() called on n412-039.vsc4.prov
*** at Tue Jan 26 18:33:48 2021

	Wfn Parameters:
	--------------------
	Wavefunction         = CCSD_T
	Number of irreps     = 4
	Number of MOs        = 41
	Number of active MOs = 36
	AO-Basis             = NONE
	Semicanonical        = false
	Reference            = UHF
	Print Level          = 1

	IRREP	# MOs	# FZDC	# DOCC	# SOCC	# VIRT	# FZVR
	-----	-----	------	------	------	------	------
	 A1	   20	    3	    2	    0	    15	    0
	 A2	   3	    0	    0	    0	    3	    0
	 B1	   9	    1	    0	    1	    7	    0
	 B2	   9	    1	    0	    0	    8	    0
	Transforming integrals...
	IWL integrals will be deleted.
	(OO|OO)...
	Presorting SO-basis two-electron integrals.
	Sorting File: SO Ints (nn|nn) nbuckets = 1
	Constructing frozen core operators
	Starting AA/AB first half-transformation.
	Sorting AA/AB half-transformed integrals.
	Starting BB first half-transformation.
	Sorting BB half-transformed integrals.
	First half integral transformation complete.
	Starting AA second half-transformation.
	Starting AB second half-transformation.
	Starting BB second half-transformation.
	Two-electron integral transformation complete.
	(OO|OV)...
	Starting AA second half-transformation.
	Starting AB second half-transformation.
	Starting BB second half-transformation.
	Two-electron integral transformation complete.
	(OO|VV)...
	Starting AA second half-transformation.
	Starting AB second half-transformation.
	Starting BB second half-transformation.
	Two-electron integral transformation complete.
	(OV|OO)...
	Starting AA/AB first half-transformation.
	Sorting AA/AB half-transformed integrals.
	Starting BB first half-transformation.
	Sorting BB half-transformed integrals.
	First half integral transformation complete.
	Starting AA second half-transformation.
	Starting AB second half-transformation.
	Starting BB second half-transformation.
	Two-electron integral transformation complete.
	(OV|OV)...
	Starting AA second half-transformation.
	Starting AB second half-transformation.
	Starting BB second half-transformation.
	Two-electron integral transformation complete.
	(OV|VV)...
	Starting AA second half-transformation.
	Starting AB second half-transformation.
	Starting BB second half-transformation.
	Two-electron integral transformation complete.
	(VV|OO)...
	Starting AA/AB first half-transformation.
	Sorting AA/AB half-transformed integrals.
	Starting BB first half-transformation.
	Sorting BB half-transformed integrals.
	First half integral transformation complete.
	Starting AA second half-transformation.
	Starting AB second half-transformation.
	Starting BB second half-transformation.
	Two-electron integral transformation complete.
	(VV|OV)...
	Starting AA second half-transformation.
	Starting AB second half-transformation.
	Starting BB second half-transformation.
	Two-electron integral transformation complete.
	(VV|VV)...
	Starting AA second half-transformation.
	Starting AB second half-transformation.
	Starting BB second half-transformation.
	Two-electron integral transformation complete.
	Frozen core energy     =   -338.08662304271314

	Size of irrep 0 of <AB|CD> integrals:      0.025 (MW) /      0.197 (MB)
	Size of irrep 1 of <AB|CD> integrals:      0.010 (MW) /      0.082 (MB)
	Size of irrep 2 of <AB|CD> integrals:      0.017 (MW) /      0.133 (MB)
	Size of irrep 3 of <AB|CD> integrals:      0.020 (MW) /      0.159 (MB)
	Total:                                     0.071 (MW) /      0.571 (MB)

	Size of irrep 0 of <ab|cd> integrals:      0.027 (MW) /      0.215 (MB)
	Size of irrep 1 of <ab|cd> integrals:      0.012 (MW) /      0.095 (MB)
	Size of irrep 2 of <ab|cd> integrals:      0.021 (MW) /      0.166 (MB)
	Size of irrep 3 of <ab|cd> integrals:      0.021 (MW) /      0.166 (MB)
	Total:                                     0.080 (MW) /      0.642 (MB)

	Size of irrep 0 of <Ab|Cd> integrals:      0.125 (MW) /      1.003 (MB)
	Size of irrep 1 of <Ab|Cd> integrals:      0.044 (MW) /      0.353 (MB)
	Size of irrep 2 of <Ab|Cd> integrals:      0.075 (MW) /      0.596 (MB)
	Size of irrep 3 of <Ab|Cd> integrals:      0.081 (MW) /      0.650 (MB)
	Total:                                     0.325 (MW) /      2.601 (MB)

	Size of irrep 0 of <IA|BC> integrals:      0.013 (MW) /      0.103 (MB)
	Size of irrep 1 of <IA|BC> integrals:      0.003 (MW) /      0.023 (MB)
	Size of irrep 2 of <IA|BC> integrals:      0.007 (MW) /      0.060 (MB)
	Size of irrep 3 of <IA|BC> integrals:      0.005 (MW) /      0.043 (MB)
	Total:                                     0.029 (MW) /      0.228 (MB)

	Size of irrep 0 of <ia|bc> integrals:      0.011 (MW) /      0.087 (MB)
	Size of irrep 1 of <ia|bc> integrals:      0.001 (MW) /      0.010 (MB)
	Size of irrep 2 of <ia|bc> integrals:      0.005 (MW) /      0.037 (MB)
	Size of irrep 3 of <ia|bc> integrals:      0.005 (MW) /      0.037 (MB)
	Total:                                     0.021 (MW) /      0.171 (MB)

	Size of irrep 0 of <Ia|Bc> integrals:      0.013 (MW) /      0.108 (MB)
	Size of irrep 1 of <Ia|Bc> integrals:      0.003 (MW) /      0.024 (MB)
	Size of irrep 2 of <Ia|Bc> integrals:      0.008 (MW) /      0.068 (MB)
	Size of irrep 3 of <Ia|Bc> integrals:      0.005 (MW) /      0.043 (MB)
	Total:                                     0.030 (MW) /      0.242 (MB)

	Size of irrep 0 of <iA|bC> integrals:      0.011 (MW) /      0.085 (MB)
	Size of irrep 1 of <iA|bC> integrals:      0.001 (MW) /      0.010 (MB)
	Size of irrep 2 of <iA|bC> integrals:      0.004 (MW) /      0.031 (MB)
	Size of irrep 3 of <iA|bC> integrals:      0.005 (MW) /      0.036 (MB)
	Total:                                     0.020 (MW) /      0.162 (MB)

	Size of irrep 0 of tIjAb amplitudes:       0.001 (MW) /      0.011 (MB)
	Size of irrep 1 of tIjAb amplitudes:       0.000 (MW) /      0.000 (MB)
	Size of irrep 2 of tIjAb amplitudes:       0.001 (MW) /      0.004 (MB)
	Size of irrep 3 of tIjAb amplitudes:       0.000 (MW) /      0.000 (MB)
	Total:                                     0.002 (MW) /      0.016 (MB)

	Nuclear Rep. energy          =      5.59473288198026
	SCF energy                   =   -340.93458550295134
	One-electron energy          =    -12.42449081399779
	Two-electron (AA) energy     =      1.03111878275906
	Two-electron (BB) energy     =      0.31881204911733
	Two-electron (AB) energy     =      2.63186463990326
	Two-electron energy          =      3.98179547177964
	Reference energy             =   -340.93458550295105

*** tstop() called on n412-039.vsc4.prov at Tue Jan 26 18:33:49 2021
Module time:
	user time   =       0.10 seconds =       0.00 minutes
	system time =       0.13 seconds =       0.00 minutes
	total time  =          1 seconds =       0.02 minutes
Total time:
	user time   =      17.26 seconds =       0.29 minutes
	system time =       1.67 seconds =       0.03 minutes
	total time  =          4 seconds =       0.07 minutes
            **************************
            *                        *
            *        CCENERGY        *
            *                        *
            **************************

    Nuclear Rep. energy (wfn)     =    5.594732881980256
    SCF energy          (wfn)     = -340.934585502951336
    Reference energy    (file100) = -340.934585502951052

    Input parameters:
    -----------------
    Wave function   =     CCSD_T
    Reference wfn   =     UHF
    Brueckner       =     No
    Memory (Mbytes) =     250000.0
    Maxiter         =     50
    R_Convergence   =     1.0e-07
    E_Convergence   =     1.0e-06
    Restart         =     Yes
    DIIS            =     Yes
    AO Basis        =     NONE
    ABCD            =     NEW
    Cache Level     =     2
    Cache Type      =     LRU
    Print Level     =     1
    Num. of threads =     48
    # Amps to Print =     10
    Print MP2 Amps? =     No
    Analyze T2 Amps =     No
    Print Pair Ener =     No
    Local CC        =     No
    SCS-MP2         =     False
    SCSN-MP2        =     False
    SCS-CCSD        =     False

MP2 correlation energy -0.0730373617806525
                Solving CC Amplitude Equations
                ------------------------------
  Iter             Energy              RMS        T1Diag      D1Diag    New D1Diag    D2Diag
  ----     ---------------------    ---------   ----------  ----------  ----------   --------
     0        -0.073037361780652    0.000e+00    0.000000    0.000000    0.000000    0.000000
     1        -0.090699477414667    5.957e-02    0.009697    0.000000    0.000000    0.000000
     2        -0.099348785350642    2.650e-02    0.018699    0.000000    0.000000    0.000000
     3        -0.099878179880851    7.156e-03    0.021601    0.000000    0.000000    0.000000
     4        -0.099990435171051    1.755e-03    0.021907    0.000000    0.000000    0.000000
     5        -0.099972663262676    6.382e-04    0.021898    0.000000    0.000000    0.000000
     6        -0.099966502230871    2.289e-04    0.021869    0.000000    0.000000    0.000000
     7        -0.099972897315362    6.339e-05    0.021870    0.000000    0.000000    0.000000
     8        -0.099970513142301    1.936e-05    0.021865    0.000000    0.000000    0.000000
     9        -0.099970733758355    6.613e-06    0.021865    0.000000    0.000000    0.000000
    10        -0.099970678716740    2.341e-06    0.021864    0.000000    0.000000    0.000000
    11        -0.099970733979314    8.860e-07    0.021864    0.000000    0.000000    0.000000
    12        -0.099970711057030    3.280e-07    0.021864    0.000000    0.000000    0.000000
    13        -0.099970714111049    7.983e-08    0.021864    0.000000    0.000000    0.000000

    Iterations converged.

    Largest TIA Amplitudes:
              1   4         0.0172626336
              0   4         0.0165525096
              0   9        -0.0108458304
              1   9        -0.0099496042
              1   1         0.0096293983
              2  19        -0.0076114657
              1   2         0.0068594566
              1  10         0.0067102921
              1   5        -0.0052175364
              1   7         0.0043784857

    Largest Tia Amplitudes:
              0   1        -0.0172128050
              1   1        -0.0138676969
              0   2        -0.0121766457
              0   0         0.0106674576
              1   0         0.0095033854
              1   2        -0.0080930736
              0   3         0.0077902902
              0   7        -0.0070771567
              0   5         0.0068489912
              1   3         0.0065196518

    Largest TIJAB Amplitudes:
      2   1  19   1        -0.0290281150
      2   0  25  15        -0.0171954439
      2   1  22   1        -0.0170452454
      2   1  19   0         0.0142486431
      1   0  27  25         0.0142287490
      2   1  19   2        -0.0135222660
      2   1  19   7        -0.0130031810
      2   1  27  15         0.0124959680
      2   0  25  16        -0.0113566875
      2   1  19   4        -0.0101758731

    Largest Tijab Amplitudes:
      1   0  20  18         0.0144132096
      1   0  28  26         0.0123671446
      1   0  23  18         0.0100576765
      1   0  31  26         0.0080761799
      1   0  20  19         0.0047547606
      1   0   5   1         0.0045463923
      1   0   6   5        -0.0044330144
      1   0   5   0        -0.0043475160
      1   0  23  22        -0.0042563499
      1   0  22  20         0.0040438842

    Largest TIjAb Amplitudes:
      1   1  25  26        -0.0729689660
      0   0  25  26        -0.0677366198
      0   1  25  26        -0.0476422424
      2   0  15  26         0.0402371248
      1   1   1   1        -0.0378422683
      1   0  25  26        -0.0356980377
      2   0   4  18        -0.0355565734
      1   1   1   2        -0.0326375918
      1   0  27  26         0.0319838719
      0   1  25  28         0.0317303535

    SCF energy       (wfn)                    = -340.934585502951336
    Reference energy (file100)                = -340.934585502951052

    Opposite-spin MP2 correlation energy      =   -0.063608078103367
    Same-spin MP2 correlation energy          =   -0.009429283677286
    Singles MP2 correlation energy            =   -0.000000000000000
    MP2 correlation energy                    =   -0.073037361780652
      * MP2 total energy                      = -341.007622864731729

    Opposite-spin CCSD correlation energy     =   -0.089513906590009
    Same-spin CCSD correlation energy         =   -0.010456807521040
    Singles CCSD correlation energy           =    0.000000000000000
    CCSD correlation energy                   =   -0.099970714111049
      * CCSD total energy                     = -341.034556217062118

            **************************
            *                        *
            *        CCTRIPLES       *
            *                        *
            **************************

    Wave function   =    CCSD_T
    Reference wfn   =      UHF

    Nuclear Rep. energy (wfn)                =    5.594732881980256
    SCF energy          (wfn)                = -340.934585502951336
    Reference energy    (file100)            = -340.934585502951052
    CCSD energy         (file100)            =   -0.099970714111049

      * CCSD(T) total energy                     = -341.036550043475188
*** Psi4 exiting successfully. Buy a developer a beer!
