                               Psi4 1.2a1.dev938

  ==> Input File <==

--------------------------------------------------------------------------
# Any line starting with the # character is a comment line
memory 250000 mb
molecule molecule{
1 2
F          0.0000000000        0.0000000000        0.0504971356
H          0.0000000000        0.0000000000       -0.9518075795
}

set {
  reference uhf
  basis aug-cc-pv(5+d)z
  scf_type OUT_OF_CORE
  freeze_core true
}

energy('ccsd')
--------------------------------------------------------------------------

    Molecular point group: c2v

    Geometry (in Angstrom), charge = 1, multiplicity = 2:

       Center              X                  Y                   Z               Mass
    ------------   -----------------  -----------------  -----------------  -----------------
           F          0.000000000000     0.000000000000     0.050491665331    18.998403224000
           H          0.000000000000     0.000000000000    -0.951813049769     1.007825032070

  Charge       = 1
  Multiplicity = 2
  Basis Set: AUG-CC-PV(5+D)Z
    Blend: AUG-CC-PV(5+D)Z

    Orbital Energies (a.u.)
    -----------------------

    Alpha Occupied:

       1A1   -26.963233     2A1    -2.228316     1B2    -1.365950
       3A1    -1.330304     1B1    -1.249209

    Alpha Virtual:

       4A1    -0.226420     5A1    -0.100545     2B2    -0.088298
       2B1    -0.081346     6A1    -0.068648     3B2    -0.005023
       3B1    -0.002191     7A1    -0.000820     8A1     0.064098
       9A1     0.137850     1A2     0.185091    10A1     0.185099
       4B2     0.212807     4B1     0.223393    11A1     0.287753
       5B2     0.304146     5B1     0.318623    12A1     0.347168
       6B2     0.348604     2A2     0.353867     6B1     0.356346
      13A1     0.356443    14A1     0.437398    15A1     0.686338
       7B2     0.706771     7B1     0.716606     8B2     0.822920
       8B1     0.822922    16A1     0.863980    17A1     0.952037
       9B2     0.975725     3A2     0.978510    18A1     0.979227
       9B1     0.980891     4A2     1.127577    19A1     1.127595
      10B2     1.180655    10B1     1.181430    11B2     1.192253
      20A1     1.198763    11B1     1.212965    21A1     1.272448
       5A2     1.273747    22A1     1.312471    12B2     1.423649
      12B1     1.456744    23A1     1.601568    13B2     1.627312
      13B1     1.657180    24A1     1.975717     6A2     2.022053
      25A1     2.022861    14B2     2.049250    14B1     2.060684
      26A1     2.317964     7A2     2.484436    27A1     2.484436
      15B2     2.566156    15B1     2.580610    28A1     2.731675
      16B2     2.778216    16B1     2.778224    29A1     2.814610
       8A2     2.814640    30A1     2.873674    17B2     3.022594
      17B1     3.049560    31A1     3.124015     9A2     3.145151
      32A1     3.145151    18B2     3.257559    18B1     3.257581
      10A2     3.376867    33A1     3.376898    19B2     3.457560
      19B1     3.457606    34A1     3.559299    11A2     3.562652
      20B2     3.592805    21B2     3.622944    20B1     3.629236
      21B1     3.647786    35A1     3.652730    36A1     3.802028
      12A2     4.037322    37A1     4.038950    22B2     4.336614
      22B1     4.336626    38A1     4.483055    23B2     4.488940
      23B1     4.518074    39A1     5.048801    13A2     5.048834
      24B2     5.065168    24B1     5.105720    40A1     5.237848
      41A1     5.614869    14A2     5.771554    42A1     5.772596
      25B2     5.907993    25B1     5.942112    43A1     5.981912
      26B2     6.153299    26B1     6.189275    44A1     6.891777
      27B2     7.146426    27B1     7.188718    28B2     7.501706
      28B1     7.501706    15A2     7.645736    45A1     7.645736
      29B2     8.094030    29B1     8.094040    46A1     8.507531
      16A2     8.527786    47A1     8.527792    48A1     8.723565
      17A2     8.723776    30B2     8.803188    30B1     8.814713
      31B2     8.833542    49A1     8.860804    31B1     8.861976
      18A2     8.862457    50A1     8.996975    32B2     9.042395
      32B1     9.089507    33B2     9.404093    33B1     9.404117
      51A1     9.601126    19A2    10.045692    52A1    10.046101
      34B2    10.353314    34B1    10.408155    53A1    10.556231
      20A2    10.557335    54A1    10.695829    55A1    11.134932
      35B2    12.031641    35B1    12.092587    36B2    12.442887
      36B1    12.442888    21A2    12.635906    56A1    12.635906
      57A1    13.336548    22A2    13.357991    58A1    13.358693
      37B2    13.417939    37B1    13.417939    23A2    13.504098
      59A1    13.504098    38B2    13.874236    38B1    13.882635
      60A1    14.153839    39B2    14.553983    39B1    14.573158
      61A1    14.992099    62A1    15.592816    24A2    15.593036
      63A1    15.888368    40B2    16.488640    40B1    16.507801
      41B2    17.723954    41B1    17.748872    64A1    18.447648
      42B2    19.650643    42B1    19.728886    65A1    19.836920
      43B2    20.337885    43B1    20.337885    66A1    20.423989
      25A2    20.423989    44B2    20.727959    44B1    20.727979
      67A1    21.154071    26A2    21.163892    68A1    21.270607
      45B2    21.962686    45B1    22.020767    69A1    22.656439
      70A1    23.917679    27A2    23.917682    46B2    24.075683
      46B1    24.075844    71A1    24.391361    28A2    24.394013
      47B2    24.628454    47B1    24.701910    48B2    25.045146
      48B1    25.045154    72A1    25.155061    29A2    25.391966
      73A1    25.392684    49B2    26.929149    49B1    26.999206
      74A1    28.388082    30A2    28.388340    75A1    28.561554
      50B2    29.910092    50B1    29.979503    76A1    30.989605
      77A1    81.018939

    Beta Occupied:

       1A1   -26.911276     2A1    -2.033042     3A1    -1.277386
       1B1    -1.194947

    Beta Virtual:

       1B2    -0.414256     4A1    -0.217927     5A1    -0.098685
       2B1    -0.080183     6A1    -0.066540     2B2    -0.066339
       3B2    -0.004241     3B1    -0.002437     7A1     0.000120
       8A1     0.067312     9A1     0.140902     1A2     0.189080
      10A1     0.189191     4B1     0.224751     4B2     0.238101
      11A1     0.290760     5B1     0.321306     5B2     0.344039
      12A1     0.352289     6B2     0.355312     6B1     0.356120
       2A2     0.356374    13A1     0.357058    14A1     0.442585
      15A1     0.688250     7B1     0.715938     7B2     0.719161
       8B1     0.824438     8B2     0.824440    16A1     0.874700
      17A1     0.954137     9B2     0.979769     9B1     0.981171
       3A2     0.984248    18A1     0.984480     4A2     1.141514
      19A1     1.141699    10B1     1.184479    10B2     1.184490
      20A1     1.209204    11B1     1.214142    11B2     1.216389
       5A2     1.295366    21A1     1.295929    22A1     1.315398
      12B1     1.462005    12B2     1.478743    23A1     1.612921
      13B1     1.664056    13B2     1.696269    24A1     1.980841
       6A2     2.032802    25A1     2.032869    14B2     2.055169
      14B1     2.059972    26A1     2.326763     7A2     2.486195
      27A1     2.486195    15B2     2.575189    15B1     2.581079
      28A1     2.738439    16B1     2.781695    16B2     2.781696
       8A2     2.814829    29A1     2.814833    30A1     2.886776
      17B2     3.053558    17B1     3.053705    31A1     3.135196
       9A2     3.150387    32A1     3.150390    18B1     3.262238
      18B2     3.262241    10A2     3.403982    33A1     3.404371
      19B2     3.477653    19B1     3.477657    34A1     3.587934
      11A2     3.588379    20B2     3.622551    20B1     3.633189
      21B1     3.651799    21B2     3.654601    35A1     3.657155
      36A1     3.824151    12A2     4.088183    37A1     4.088450
      22B2     4.341720    22B1     4.341721    38A1     4.495948
      23B2     4.518029    23B1     4.521142    39A1     5.050978
      13A2     5.050984    24B1     5.114352    24B2     5.124256
      40A1     5.248302    41A1     5.628636    14A2     5.778718
      42A1     5.779187    25B2     5.943155    25B1     5.946219
      43A1     5.998970    26B2     6.183251    26B1     6.194699
      44A1     6.906195    27B2     7.196730    27B1     7.198104
      28B2     7.513489    28B1     7.513489    45A1     7.655682
      15A2     7.655682    29B2     8.106185    29B1     8.106186
      46A1     8.525195    16A2     8.554746    47A1     8.554747
      48A1     8.742953    17A2     8.743227    30B2     8.823156
      30B1     8.832746    31B2     8.845334    31B1     8.862847
      49A1     8.875452    18A2     8.876252    50A1     9.002861
      32B2     9.070041    32B1     9.094564    33B2     9.459938
      33B1     9.459939    51A1     9.621003    19A2    10.089823
      52A1    10.089905    34B2    10.393053    34B1    10.416421
      53A1    10.628020    20A2    10.628392    54A1    10.706844
      55A1    11.159850    35B2    12.094234    35B1    12.106358
      36B2    12.442206    36B1    12.442206    21A2    12.635542
      56A1    12.635542    57A1    13.354349    22A2    13.358384
      58A1    13.361419    37B2    13.418889    37B1    13.418889
      59A1    13.503071    23A2    13.503072    38B2    13.876277
      38B1    13.882175    60A1    14.156688    39B2    14.559482
      39B1    14.572805    61A1    15.006658    62A1    15.596732
      24A2    15.596870    63A1    15.888714    40B2    16.499247
      40B1    16.508939    41B2    17.741277    41B1    17.751148
      64A1    18.464842    42B2    19.729869    42B1    19.745506
      65A1    19.844696    43B2    20.367334    43B1    20.367334
      66A1    20.448399    25A2    20.448399    44B2    20.747775
      44B1    20.747779    67A1    21.174433    26A2    21.180025
      68A1    21.282825    45B2    21.988308    45B1    22.026959
      69A1    22.677374    70A1    23.964746    27A2    23.964746
      46B2    24.113248    46B1    24.113290    71A1    24.421791
      28A2    24.422867    47B2    24.666374    47B1    24.712073
      48B2    25.105099    48B1    25.105100    72A1    25.177350
      29A2    25.435598    73A1    25.435748    49B2    26.976134
      49B1    27.012110    30A2    28.448282    74A1    28.448288
      75A1    28.580791    50B2    29.964856    50B1    29.992848
      76A1    31.010538    77A1    81.038653

    Final Occupation by Irrep:
             A1    A2    B1    B2
    DOCC [     3,    0,    1,    0 ]
    SOCC [     0,    0,    0,    1 ]

  Energy converged.

  @UHF Final Energy:   -99.54733152518835

   => Energetics <=

    Nuclear Repulsion Energy =              4.7516436923424390
    One-Electron Energy =                -144.0442867485534464
    Two-Electron Energy =                  39.7453115310226579
    Total Energy =                        -99.5473315251883548

  UHF NO Occupations:
  HONO-2 :    2 A1 1.9993587
  HONO-1 :    3 A1 1.9983167
  HONO-0 :    1 B2 1.0000000
  LUNO+0 :    4 A1 0.0016833
  LUNO+1 :    5 A1 0.0006413
  LUNO+2 :    2 B1 0.0002428
  LUNO+3 :    6 A1 0.0000013

Properties will be evaluated at   0.000000,   0.000000,   0.000000 Bohr

Properties computed using the SCF density matrix

  Nuclear Dipole Moment: (a.u.)
     X:     0.0000      Y:     0.0000      Z:    -0.9399

  Electronic Dipole Moment: (a.u.)
     X:     0.0000      Y:     0.0000      Z:    -0.1171

  Dipole Moment: (a.u.)
     X:     0.0000      Y:     0.0000      Z:    -1.0570     Total:     1.0570

  Dipole Moment: (Debye)
     X:     0.0000      Y:     0.0000      Z:    -2.6867     Total:     2.6867

*** tstop() called on cqc05 at Fri Aug 21 03:38:45 2020
Module time:
	user time   =      33.80 seconds =       0.56 minutes
	system time =       1.94 seconds =       0.03 minutes
	total time  =         35 seconds =       0.58 minutes
Total time:
	user time   =      33.80 seconds =       0.56 minutes
	system time =       1.94 seconds =       0.03 minutes
	total time  =         35 seconds =       0.58 minutes

*** tstart() called on cqc05
*** at Fri Aug 21 03:38:45 2020

	Wfn Parameters:
	--------------------
	Wavefunction         = CCSD
	Number of irreps     = 4
	Number of MOs        = 207
	Number of active MOs = 206
	AO-Basis             = NONE
	Semicanonical        = false
	Reference            = UHF
	Print Level          = 1

	IRREP	# MOs	# FZDC	# DOCC	# SOCC	# VIRT	# FZVR
	-----	-----	------	------	------	------	------
	 A1	   77	    1	    2	    0	    74	    0
	 A2	   30	    0	    0	    0	    30	    0
	 B1	   50	    0	    1	    0	    49	    0
	 B2	   50	    0	    0	    1	    49	    0
	Transforming integrals...
	IWL integrals will be deleted.
	(OO|OO)...
	Presorting SO-basis two-electron integrals.
	Sorting File: SO Ints (nn|nn) nbuckets = 1
	Transforming the one-electron integrals and constructing Fock matrices
	Starting AA/AB first half-transformation.
	Sorting AA/AB half-transformed integrals.
	Starting BB first half-transformation.
	Sorting BB half-transformed integrals.
	First half integral transformation complete.
	Starting AA second half-transformation.
	Starting AB second half-transformation.
	Starting BB second half-transformation.
	Two-electron integral transformation complete.
	(OO|OV)...
	Starting AA second half-transformation.
	Starting AB second half-transformation.
	Starting BB second half-transformation.
	Two-electron integral transformation complete.
	(OO|VV)...
	Starting AA second half-transformation.
	Starting AB second half-transformation.
	Starting BB second half-transformation.
	Two-electron integral transformation complete.
	(OV|OO)...
	Starting AA/AB first half-transformation.
	Sorting AA/AB half-transformed integrals.
	Starting BB first half-transformation.
	Sorting BB half-transformed integrals.
	First half integral transformation complete.
	Starting AA second half-transformation.
	Starting AB second half-transformation.
	Starting BB second half-transformation.
	Two-electron integral transformation complete.
	(OV|OV)...
	Starting AA second half-transformation.
	Starting AB second half-transformation.
	Starting BB second half-transformation.
	Two-electron integral transformation complete.
	(OV|VV)...
	Starting AA second half-transformation.
	Starting AB second half-transformation.
	Starting BB second half-transformation.
	Two-electron integral transformation complete.
	(VV|OO)...
	Starting AA/AB first half-transformation.
	Sorting AA/AB half-transformed integrals.
	Starting BB first half-transformation.
	Sorting BB half-transformed integrals.
	First half integral transformation complete.
	Starting AA second half-transformation.
	Starting AB second half-transformation.
	Starting BB second half-transformation.
	Two-electron integral transformation complete.
	(VV|OV)...
	Starting AA second half-transformation.
	Starting AB second half-transformation.
	Starting BB second half-transformation.
	Two-electron integral transformation complete.
	(VV|VV)...
	Starting AA second half-transformation.
	Starting AB second half-transformation.
	Starting BB second half-transformation.
	Two-electron integral transformation complete.
	Frozen core energy     =    -76.53566246916188

	Size of irrep 0 of <AB|CD> integrals:     30.118 (MW) /    240.945 (MB)
	Size of irrep 1 of <AB|CD> integrals:     21.354 (MW) /    170.829 (MB)
	Size of irrep 2 of <AB|CD> integrals:     25.969 (MW) /    207.754 (MB)
	Size of irrep 3 of <AB|CD> integrals:     25.969 (MW) /    207.754 (MB)
	Total:                                   103.410 (MW) /    827.282 (MB)

	Size of irrep 0 of <ab|cd> integrals:     30.658 (MW) /    245.267 (MB)
	Size of irrep 1 of <ab|cd> integrals:     21.809 (MW) /    174.471 (MB)
	Size of irrep 2 of <ab|cd> integrals:     26.276 (MW) /    210.207 (MB)
	Size of irrep 3 of <ab|cd> integrals:     26.729 (MW) /    213.831 (MB)
	Total:                                   105.472 (MW) /    843.776 (MB)

	Size of irrep 0 of <Ab|Cd> integrals:    126.046 (MW) /   1008.364 (MB)
	Size of irrep 1 of <Ab|Cd> integrals:     86.323 (MW) /    690.581 (MB)
	Size of irrep 2 of <Ab|Cd> integrals:    104.489 (MW) /    835.914 (MB)
	Size of irrep 3 of <Ab|Cd> integrals:    105.391 (MW) /    843.126 (MB)
	Total:                                   422.248 (MW) /   3377.986 (MB)

	Size of irrep 0 of <IA|BC> integrals:      2.750 (MW) /     21.998 (MB)
	Size of irrep 1 of <IA|BC> integrals:      1.460 (MW) /     11.682 (MB)
	Size of irrep 2 of <IA|BC> integrals:      2.059 (MW) /     16.470 (MB)
	Size of irrep 3 of <IA|BC> integrals:      2.059 (MW) /     16.470 (MB)
	Total:                                     8.328 (MW) /     66.621 (MB)

	Size of irrep 0 of <ia|bc> integrals:      2.222 (MW) /     17.773 (MB)
	Size of irrep 1 of <ia|bc> integrals:      1.027 (MW) /      8.219 (MB)
	Size of irrep 2 of <ia|bc> integrals:      1.763 (MW) /     14.107 (MB)
	Size of irrep 3 of <ia|bc> integrals:      1.344 (MW) /     10.754 (MB)
	Total:                                     6.357 (MW) /     50.852 (MB)

	Size of irrep 0 of <Ia|Bc> integrals:      2.773 (MW) /     22.185 (MB)
	Size of irrep 1 of <Ia|Bc> integrals:      1.477 (MW) /     11.818 (MB)
	Size of irrep 2 of <Ia|Bc> integrals:      2.065 (MW) /     16.519 (MB)
	Size of irrep 3 of <Ia|Bc> integrals:      2.094 (MW) /     16.754 (MB)
	Total:                                     8.409 (MW) /     67.276 (MB)

	Size of irrep 0 of <iA|bC> integrals:      2.212 (MW) /     17.694 (MB)
	Size of irrep 1 of <iA|bC> integrals:      1.013 (MW) /      8.102 (MB)
	Size of irrep 2 of <iA|bC> integrals:      1.758 (MW) /     14.065 (MB)
	Size of irrep 3 of <iA|bC> integrals:      1.314 (MW) /     10.512 (MB)
	Total:                                     6.297 (MW) /     50.373 (MB)

	Size of irrep 0 of tIjAb amplitudes:       0.056 (MW) /      0.449 (MB)
	Size of irrep 1 of tIjAb amplitudes:       0.009 (MW) /      0.074 (MB)
	Size of irrep 2 of tIjAb amplitudes:       0.041 (MW) /      0.327 (MB)
	Size of irrep 3 of tIjAb amplitudes:       0.021 (MW) /      0.164 (MB)
	Total:                                     0.127 (MW) /      1.015 (MB)

	Nuclear Rep. energy          =      4.75164369234244
	SCF energy                   =    -99.54733152518835
	One-electron energy          =    -44.84747123414360
	Two-electron (AA) energy     =      4.53574918650022
	Two-electron (BB) energy     =      2.12221756440059
	Two-electron (AB) energy     =     10.42619173487347
	Two-electron energy          =     17.08415848577429
	Reference energy             =    -99.54733152518875

*** tstop() called on cqc05 at Fri Aug 21 03:39:47 2020
Module time:
	user time   =      38.36 seconds =       0.64 minutes
	system time =      23.30 seconds =       0.39 minutes
	total time  =         62 seconds =       1.03 minutes
Total time:
	user time   =      72.16 seconds =       1.20 minutes
	system time =      25.24 seconds =       0.42 minutes
	total time  =         97 seconds =       1.62 minutes

*** tstart() called on cqc05
*** at Fri Aug 21 03:39:47 2020

            **************************
            *                        *
            *        CCENERGY        *
            *                        *
            **************************

    Nuclear Rep. energy (wfn)     =    4.751643692342439
    SCF energy          (wfn)     =  -99.547331525188355
    Reference energy    (file100) =  -99.547331525188753

    Input parameters:
    -----------------
    Wave function   =     CCSD
    Reference wfn   =     UHF
    Brueckner       =     No
    Memory (Mbytes) =     250000.0
    Maxiter         =     50
    R_Convergence   =     1.0e-07
    E_Convergence   =     1.0e-06
    Restart         =     Yes
    DIIS            =     Yes
    AO Basis        =     NONE
    ABCD            =     NEW
    Cache Level     =     2
    Cache Type      =     LRU
    Print Level     =     1
    Num. of threads =     4
    # Amps to Print =     10
    Print MP2 Amps? =     No
    Analyze T2 Amps =     No
    Print Pair Ener =     No
    Local CC        =     No

      * MP2 total energy                      =  -99.780144813625796
      * CCSD total energy                     =  -99.789945839429350
*** Psi4 exiting successfully. Buy a developer a beer!
