                               Psi4 1.2a1.dev938

  ==> Input File <==

--------------------------------------------------------------------------
# Any line starting with the # character is a comment line
memory 250000 mb
molecule molecule{
1 2
F          0.0000000000        0.0000000000        0.0504971356
H          0.0000000000        0.0000000000       -0.9518075795
}

set {
  reference uhf
  basis aug-cc-pv(q+d)z
  scf_type OUT_OF_CORE
  freeze_core true
}

energy('ccsd')
--------------------------------------------------------------------------

    Molecular point group: c2v

    Geometry (in Angstrom), charge = 1, multiplicity = 2:

       Center              X                  Y                   Z               Mass
    ------------   -----------------  -----------------  -----------------  -----------------
           F          0.000000000000     0.000000000000     0.050491665331    18.998403224000
           H          0.000000000000     0.000000000000    -0.951813049769     1.007825032070

  Charge       = 1
  Multiplicity = 2
  Basis Set: AUG-CC-PV(Q+D)Z
    Blend: AUG-CC-PV(Q+D)Z

    Orbital Energies (a.u.)
    -----------------------

    Alpha Occupied:

       1A1   -26.964202     2A1    -2.228674     1B1    -1.365824
       3A1    -1.330306     1B2    -1.249093

    Alpha Virtual:

       4A1    -0.226390     5A1    -0.096365     2B1    -0.075672
       2B2    -0.067083     6A1    -0.053226     3B1     0.011810
       3B2     0.015314     7A1     0.020230     8A1     0.088706
       9A1     0.251140     1A2     0.262262    10A1     0.262967
       4B1     0.328080     4B2     0.335910    11A1     0.406688
      12A1     0.454742     5B1     0.457975     6B1     0.464145
       5B2     0.474259     2A2     0.478581    13A1     0.480155
       6B2     0.486414    14A1     0.625798     7B1     0.898147
       7B2     0.908723    15A1     1.048438    16A1     1.128916
       8B1     1.167909     8B2     1.167911     3A2     1.347981
      17A1     1.348621    18A1     1.365427     9B1     1.475058
       9B2     1.484682    10B1     1.608023    19A1     1.625553
       4A2     1.627218    10B2     1.641275    20A1     1.682321
      11B1     1.685569    11B2     1.685616     5A2     1.739203
      21A1     1.742967    22A1     1.868269    12B1     2.081980
      12B2     2.102168    23A1     2.340291    13B1     2.428033
      13B2     2.476055    24A1     2.661452     6A2     2.663310
      25A1     2.664459    14B1     2.675656    14B2     2.691640
      26A1     3.397971    15B1     3.961769    15B2     4.011793
      27A1     4.117131     7A2     4.241631    28A1     4.241631
      16B1     4.379772    16B2     4.379827    29A1     4.717291
       8A2     4.718934    30A1     4.757971    17B1     4.895573
      17B2     4.942899    18B1     5.020254    18B2     5.020478
      31A1     5.130817     9A2     5.133381    32A1     5.260645
      19B1     5.303598    19B2     5.347100    33A1     5.452542
      10A2     5.453478    34A1     5.759042    20B1     5.980520
      20B2     6.030375    35A1     6.103210    21B1     6.232545
      21B2     6.232548    36A1     7.340657    11A2     7.347847
      37A1     7.359242    22B1     7.384688    22B2     7.394746
      38A1     7.989655    12A2     8.077732    39A1     8.077832
      23B1     8.294736    23B2     8.307155    40A1     9.798242
      24B1     9.804857    24B2     9.832721    41A1    11.778912
      42A1    13.053367    13A2    13.053370    25B1    13.156402
      25B2    13.156526    26B1    13.208590    26B2    13.298664
      43A1    13.387258    14A2    13.389385    27B1    13.747873
      27B2    13.810867    44A1    13.954519    45A1    14.424628
      28B1    15.229660    28B2    15.229709    15A2    15.422094
      46A1    15.423553    29B1    15.917476    29B2    15.987111
      16A2    16.178614    47A1    16.178969    48A1    16.468659
      30B1    16.768766    30B2    16.842539    49A1    18.855273
      50A1    55.377659

    Beta Occupied:

       1A1   -26.912071     2A1    -2.033386     3A1    -1.277392
       1B2    -1.194800

    Beta Virtual:

       1B1    -0.414384     4A1    -0.217895     5A1    -0.094308
       2B2    -0.065550     6A1    -0.050572     2B1    -0.047059
       3B1     0.012899     3B2     0.014995     7A1     0.022133
       8A1     0.092377     9A1     0.254020     1A2     0.268821
      10A1     0.269012     4B2     0.335116     4B1     0.337533
      11A1     0.411151    12A1     0.460181     5B1     0.471463
       5B2     0.473924     2A2     0.482221    13A1     0.482698
       6B2     0.494348     6B1     0.549076    14A1     0.634551
       7B1     0.903809     7B2     0.907517    15A1     1.055659
      16A1     1.140763     8B2     1.170506     8B1     1.170509
      17A1     1.365539     3A2     1.368206    18A1     1.369231
       9B1     1.485125     9B2     1.485567    10B2     1.644662
       4A2     1.652811    19A1     1.652974    10B1     1.656115
      11B2     1.692672    11B1     1.692696    20A1     1.696654
       5A2     1.755041    21A1     1.755442    22A1     1.879476
      12B1     2.096198    12B2     2.102194    23A1     2.350715
      13B2     2.488878    13B1     2.528908    24A1     2.669651
       6A2     2.673909    25A1     2.676295    14B1     2.686713
      14B2     2.691258    26A1     3.413038    15B2     4.022950
      15B1     4.029513    27A1     4.132406     7A2     4.255121
      28A1     4.255121    16B2     4.391653    16B1     4.391663
      29A1     4.745916     8A2     4.746395    30A1     4.784166
      17B1     4.943456    17B2     4.949715    18B2     5.059769
      18B1     5.059780    31A1     5.171175     9A2     5.171396
      32A1     5.275158    19B1     5.345991    19B2     5.353897
      10A2     5.524688    33A1     5.525014    34A1     5.778193
      20B1     6.038056    20B2     6.039717    35A1     6.134966
      21B1     6.233785    21B2     6.233785    36A1     7.347365
      11A2     7.351530    37A1     7.362821    22B1     7.388486
      22B2     7.393598    38A1     7.993069    12A2     8.077849
      39A1     8.077942    23B1     8.297710    23B2     8.305746
      40A1     9.801649    24B1     9.824115    24B2     9.835434
      41A1    11.796460    42A1    13.094729    13A2    13.094729
      25B1    13.189213    25B2    13.189231    26B2    13.321655
      26B1    13.326269    43A1    13.413800    14A2    13.414661
      27B1    13.783270    27B2    13.818763    44A1    13.973188
      45A1    14.460746    28B1    15.299378    28B2    15.299379
      15A2    15.472239    46A1    15.472487    29B1    15.975096
      29B2    16.000496    16A2    16.264219    47A1    16.264293
      48A1    16.489731    30B1    16.847194    30B2    16.860773
      49A1    18.880397    50A1    55.407585

    Final Occupation by Irrep:
             A1    A2    B1    B2
    DOCC [     3,    0,    0,    1 ]
    SOCC [     0,    0,    1,    0 ]

  Energy converged.

  @UHF Final Energy:   -99.54520830862251

   => Energetics <=

    Nuclear Repulsion Energy =              4.7516436923424390
    One-Electron Energy =                -144.0379567116685280
    Two-Electron Energy =                  39.7411047107035813
    Total Energy =                        -99.5452083086225059

  UHF NO Occupations:
  HONO-2 :    2 A1 1.9993590
  HONO-1 :    3 A1 1.9983185
  HONO-0 :    1 B1 1.0000000
  LUNO+0 :    4 A1 0.0016815
  LUNO+1 :    5 A1 0.0006410
  LUNO+2 :    2 B2 0.0002434
  LUNO+3 :    6 A1 0.0000012

Properties will be evaluated at   0.000000,   0.000000,   0.000000 Bohr

Properties computed using the SCF density matrix

  Nuclear Dipole Moment: (a.u.)
     X:     0.0000      Y:     0.0000      Z:    -0.9399

  Electronic Dipole Moment: (a.u.)
     X:     0.0000      Y:     0.0000      Z:    -0.1169

  Dipole Moment: (a.u.)
     X:     0.0000      Y:     0.0000      Z:    -1.0568     Total:     1.0568

  Dipole Moment: (Debye)
     X:     0.0000      Y:     0.0000      Z:    -2.6862     Total:     2.6862

*** tstop() called on cqc05 at Thu Aug 20 20:58:32 2020
Module time:
	user time   =       4.96 seconds =       0.08 minutes
	system time =       0.26 seconds =       0.00 minutes
	total time  =          4 seconds =       0.07 minutes
Total time:
	user time   =       4.96 seconds =       0.08 minutes
	system time =       0.26 seconds =       0.00 minutes
	total time  =          4 seconds =       0.07 minutes

*** tstart() called on cqc05
*** at Thu Aug 20 20:58:32 2020

	Wfn Parameters:
	--------------------
	Wavefunction         = CCSD
	Number of irreps     = 4
	Number of MOs        = 126
	Number of active MOs = 125
	AO-Basis             = NONE
	Semicanonical        = false
	Reference            = UHF
	Print Level          = 1

	IRREP	# MOs	# FZDC	# DOCC	# SOCC	# VIRT	# FZVR
	-----	-----	------	------	------	------	------
	 A1	   50	    1	    2	    0	    47	    0
	 A2	   16	    0	    0	    0	    16	    0
	 B1	   30	    0	    0	    1	    29	    0
	 B2	   30	    0	    1	    0	    29	    0
	Transforming integrals...
	IWL integrals will be deleted.
	(OO|OO)...
	Presorting SO-basis two-electron integrals.
	Sorting File: SO Ints (nn|nn) nbuckets = 1
	Transforming the one-electron integrals and constructing Fock matrices
	Starting AA/AB first half-transformation.
	Sorting AA/AB half-transformed integrals.
	Starting BB first half-transformation.
	Sorting BB half-transformed integrals.
	First half integral transformation complete.
	Starting AA second half-transformation.
	Starting AB second half-transformation.
	Starting BB second half-transformation.
	Two-electron integral transformation complete.
	(OO|OV)...
	Starting AA second half-transformation.
	Starting AB second half-transformation.
	Starting BB second half-transformation.
	Two-electron integral transformation complete.
	(OO|VV)...
	Starting AA second half-transformation.
	Starting AB second half-transformation.
	Starting BB second half-transformation.
	Two-electron integral transformation complete.
	(OV|OO)...
	Starting AA/AB first half-transformation.
	Sorting AA/AB half-transformed integrals.
	Starting BB first half-transformation.
	Sorting BB half-transformed integrals.
	First half integral transformation complete.
	Starting AA second half-transformation.
	Starting AB second half-transformation.
	Starting BB second half-transformation.
	Two-electron integral transformation complete.
	(OV|OV)...
	Starting AA second half-transformation.
	Starting AB second half-transformation.
	Starting BB second half-transformation.
	Two-electron integral transformation complete.
	(OV|VV)...
	Starting AA second half-transformation.
	Starting AB second half-transformation.
	Starting BB second half-transformation.
	Two-electron integral transformation complete.
	(VV|OO)...
	Starting AA/AB first half-transformation.
	Sorting AA/AB half-transformed integrals.
	Starting BB first half-transformation.
	Sorting BB half-transformed integrals.
	First half integral transformation complete.
	Starting AA second half-transformation.
	Starting AB second half-transformation.
	Starting BB second half-transformation.
	Two-electron integral transformation complete.
	(VV|OV)...
	Starting AA second half-transformation.
	Starting AB second half-transformation.
	Starting BB second half-transformation.
	Two-electron integral transformation complete.
	(VV|VV)...
	Starting AA second half-transformation.
	Starting AB second half-transformation.
	Starting BB second half-transformation.
	Two-electron integral transformation complete.
	Frozen core energy     =    -76.53548703642133

	Size of irrep 0 of <AB|CD> integrals:      4.052 (MW) /     32.417 (MB)
	Size of irrep 1 of <AB|CD> integrals:      2.538 (MW) /     20.301 (MB)
	Size of irrep 2 of <AB|CD> integrals:      3.338 (MW) /     26.703 (MB)
	Size of irrep 3 of <AB|CD> integrals:      3.338 (MW) /     26.703 (MB)
	Total:                                    13.266 (MW) /    106.125 (MB)

	Size of irrep 0 of <ab|cd> integrals:      4.170 (MW) /     33.358 (MB)
	Size of irrep 1 of <ab|cd> integrals:      2.631 (MW) /     21.047 (MB)
	Size of irrep 2 of <ab|cd> integrals:      3.512 (MW) /     28.095 (MB)
	Size of irrep 3 of <ab|cd> integrals:      3.397 (MW) /     27.173 (MB)
	Total:                                    13.709 (MW) /    109.673 (MB)

	Size of irrep 0 of <Ab|Cd> integrals:     17.439 (MW) /    139.512 (MB)
	Size of irrep 1 of <Ab|Cd> integrals:     10.336 (MW) /     82.690 (MB)
	Size of irrep 2 of <Ab|Cd> integrals:     13.697 (MW) /    109.579 (MB)
	Size of irrep 3 of <Ab|Cd> integrals:     13.469 (MW) /    107.751 (MB)
	Total:                                    54.942 (MW) /    439.532 (MB)

	Size of irrep 0 of <IA|BC> integrals:      0.630 (MW) /      5.043 (MB)
	Size of irrep 1 of <IA|BC> integrals:      0.287 (MW) /      2.294 (MB)
	Size of irrep 2 of <IA|BC> integrals:      0.442 (MW) /      3.537 (MB)
	Size of irrep 3 of <IA|BC> integrals:      0.442 (MW) /      3.537 (MB)
	Total:                                     1.801 (MW) /     14.411 (MB)

	Size of irrep 0 of <ia|bc> integrals:      0.517 (MW) /      4.139 (MB)
	Size of irrep 1 of <ia|bc> integrals:      0.201 (MW) /      1.609 (MB)
	Size of irrep 2 of <ia|bc> integrals:      0.285 (MW) /      2.279 (MB)
	Size of irrep 3 of <ia|bc> integrals:      0.387 (MW) /      3.096 (MB)
	Total:                                     1.390 (MW) /     11.123 (MB)

	Size of irrep 0 of <Ia|Bc> integrals:      0.639 (MW) /      5.111 (MB)
	Size of irrep 1 of <Ia|Bc> integrals:      0.293 (MW) /      2.341 (MB)
	Size of irrep 2 of <Ia|Bc> integrals:      0.455 (MW) /      3.642 (MB)
	Size of irrep 3 of <Ia|Bc> integrals:      0.444 (MW) /      3.553 (MB)
	Total:                                     1.831 (MW) /     14.646 (MB)

	Size of irrep 0 of <iA|bC> integrals:      0.514 (MW) /      4.109 (MB)
	Size of irrep 1 of <iA|bC> integrals:      0.196 (MW) /      1.569 (MB)
	Size of irrep 2 of <iA|bC> integrals:      0.274 (MW) /      2.191 (MB)
	Size of irrep 3 of <iA|bC> integrals:      0.385 (MW) /      3.083 (MB)
	Total:                                     1.369 (MW) /     10.952 (MB)

	Size of irrep 0 of tIjAb amplitudes:       0.021 (MW) /      0.167 (MB)
	Size of irrep 1 of tIjAb amplitudes:       0.003 (MW) /      0.026 (MB)
	Size of irrep 2 of tIjAb amplitudes:       0.007 (MW) /      0.059 (MB)
	Size of irrep 3 of tIjAb amplitudes:       0.015 (MW) /      0.117 (MB)
	Total:                                     0.046 (MW) /      0.369 (MB)

	Nuclear Rep. energy          =      4.75164369234244
	SCF energy                   =    -99.54520830862251
	One-electron energy          =    -44.84325526404211
	Two-electron (AA) energy     =      4.53511401425388
	Two-electron (BB) energy     =      2.12192959982228
	Two-electron (AB) energy     =     10.42484668542231
	Two-electron energy          =     17.08189029949847
	Reference energy             =    -99.54520830862253

*** tstop() called on cqc05 at Thu Aug 20 20:58:41 2020
Module time:
	user time   =       4.97 seconds =       0.08 minutes
	system time =       3.27 seconds =       0.05 minutes
	total time  =          9 seconds =       0.15 minutes
Total time:
	user time   =       9.93 seconds =       0.17 minutes
	system time =       3.53 seconds =       0.06 minutes
	total time  =         13 seconds =       0.22 minutes

*** tstart() called on cqc05
*** at Thu Aug 20 20:58:41 2020

            **************************
            *                        *
            *        CCENERGY        *
            *                        *
            **************************

    Nuclear Rep. energy (wfn)     =    4.751643692342439
    SCF energy          (wfn)     =  -99.545208308622506
    Reference energy    (file100) =  -99.545208308622534

    Input parameters:
    -----------------
    Wave function   =     CCSD
    Reference wfn   =     UHF
    Brueckner       =     No
    Memory (Mbytes) =     250000.0
    Maxiter         =     50
    R_Convergence   =     1.0e-07
    E_Convergence   =     1.0e-06
    Restart         =     Yes
    DIIS            =     Yes
    AO Basis        =     NONE
    ABCD            =     NEW
    Cache Level     =     2
    Cache Type      =     LRU
    Print Level     =     1
    Num. of threads =     4
    # Amps to Print =     10
    Print MP2 Amps? =     No
    Analyze T2 Amps =     No
    Print Pair Ener =     No
    Local CC        =     No
    SCS-MP2         =     False
    SCSN-MP2        =     False
    SCS-CCSD        =     False

MP2 correlation energy -0.2252831765388192
                Solving CC Amplitude Equations
                ------------------------------
  Iter             Energy              RMS        T1Diag      D1Diag    New D1Diag    D2Diag
  ----     ---------------------    ---------   ----------  ----------  ----------   --------
     0        -0.225283176538819    0.000e+00    0.000000    0.000000    0.000000    0.000000
     1        -0.232618098934811    2.813e-02    0.007314    0.000000    0.000000    0.000000
     2        -0.236006820962609    9.023e-03    0.008385    0.000000    0.000000    0.000000
     3        -0.236617712170988    4.068e-03    0.009506    0.000000    0.000000    0.000000
     4        -0.236551349383632    1.513e-03    0.009664    0.000000    0.000000    0.000000
     5        -0.236578724121420    6.249e-04    0.009683    0.000000    0.000000    0.000000
     6        -0.236590695487891    1.965e-04    0.009667    0.000000    0.000000    0.000000
     7        -0.236589434645339    5.976e-05    0.009662    0.000000    0.000000    0.000000
     8        -0.236589385759038    2.108e-05    0.009663    0.000000    0.000000    0.000000
     9        -0.236589155630722    6.579e-06    0.009664    0.000000    0.000000    0.000000
    10        -0.236589218853862    2.187e-06    0.009664    0.000000    0.000000    0.000000
    11        -0.236589261449038    6.398e-07    0.009664    0.000000    0.000000    0.000000
    12        -0.236589277413262    1.918e-07    0.009664    0.000000    0.000000    0.000000
    13        -0.236589280030450    4.943e-08    0.009664    0.000000    0.000000    0.000000
    13        -0.236589280030450    4.943e-08    0.009664    0.000000    0.000000    0.000000

    Iterations converged.

    CCSD corr. energy   =   -0.236589280030450
    PPL corr. energy    =    0.042436607133248
    OS PPL corr. energy =    0.035805748021278
    SS PPL corr. energy =    0.006630859111970
    Largest TIA Amplitudes:
              1   0         0.0095459433
              2  63        -0.0067742262
              3  92        -0.0064775040
              1   1        -0.0054192451
              2  66        -0.0053562962
              1   4        -0.0053361078
              3  96        -0.0049794665
              0   0        -0.0034903806
              2  65        -0.0034406194
              1   5        -0.0032036208

    Largest Tia Amplitudes:
              2  93        -0.0055288163
              1   0         0.0048204673
              2  97        -0.0032121428
              1   1        -0.0029659138
              1  20        -0.0029309155
              0  15         0.0028462227
              2  95        -0.0028089994
              1  23        -0.0027890056
              0   4        -0.0026193923

      * MP2 total energy                      =  -99.770491485161358
      * CCSD total energy                     =  -99.781797588652978
*** Psi4 exiting successfully. Buy a developer a beer!
