                               Psi4 1.2a1.dev938

  ==> Input File <==

--------------------------------------------------------------------------
# Any line starting with the # character is a comment line
memory 250000 mb
molecule molecule{
1 2
F          0.0000000000        0.0000000000        0.0504971356
H          0.0000000000        0.0000000000       -0.9518075795
}

set {
  reference uhf
  basis aug-cc-pv(d+d)z
  scf_type OUT_OF_CORE
  freeze_core true
}

energy('ccsd')
--------------------------------------------------------------------------

    Molecular point group: c2v

    Geometry (in Angstrom), charge = 1, multiplicity = 2:

       Center              X                  Y                   Z               Mass
    ------------   -----------------  -----------------  -----------------  -----------------
           F          0.000000000000     0.000000000000     0.050491665331    18.998403224000
           H          0.000000000000     0.000000000000    -0.951813049769     1.007825032070

  Charge       = 1
  Multiplicity = 2
  Basis Set: AUG-CC-PV(D+D)Z
    Blend: AUG-CC-PV(D+D)Z

    Orbital Energies (a.u.)
    -----------------------

    Alpha Occupied:

       1A1   -26.978185     2A1    -2.235344     1B2    -1.365210
       3A1    -1.333734     1B1    -1.250151

    Alpha Virtual:

       4A1    -0.227071     5A1    -0.077545     2B2    -0.041368
       2B1    -0.028299     6A1    -0.008552     7A1     0.071164
       3B2     0.103116     3B1     0.110221     8A1     0.288082
       9A1     0.550429    10A1     0.880022     1A2     0.880115
       4B2     0.962099     4B1     0.992519     5B2     1.103988
       5B1     1.165392    11A1     1.174987    12A1     1.560876
       6B2     1.665602     6B1     1.684313    13A1     1.959844
      14A1     3.031168    15A1     4.217818     2A2     4.223471
       7B2     4.302523     7B1     4.375534    16A1     4.480061

    Beta Occupied:

       1A1   -26.924511     2A1    -2.041044     3A1    -1.279997
       1B1    -1.194088

    Beta Virtual:

       1B2    -0.421435     4A1    -0.218466     5A1    -0.074237
       2B1    -0.025533     6A1    -0.005140     2B2     0.002333
       7A1     0.076107     3B2     0.108267     3B1     0.109349
       8A1     0.296380     9A1     0.552516     1A2     0.924917
      10A1     0.925516     4B1     0.993131     4B2     1.004397
       5B1     1.186596    11A1     1.192019     5B2     1.290009
      12A1     1.588162     6B2     1.677105     6B1     1.683085
      13A1     1.989670    14A1     3.046333    15A1     4.342037
       2A2     4.342286     7B1     4.396603     7B2     4.420165
      16A1     4.527223

    Final Occupation by Irrep:
             A1    A2    B1    B2
    DOCC [     3,    0,    1,    0 ]
    SOCC [     0,    0,    0,    1 ]

  Energy converged.

  @UHF Final Energy:   -99.50633523875399

   => Energetics <=

    Nuclear Repulsion Energy =              4.7516436923424390
    One-Electron Energy =                -143.9136934782814592
    Two-Electron Energy =                  39.6557145471850276
    PCM Polarization Energy =               0.0000000000000000
    Total Energy =                        -99.5063352387539908

    Alert: EFP and PCM quantities not currently incorporated into SCF psivars.
  UHF NO Occupations:
  HONO-2 :    2 A1 1.9994035
  HONO-1 :    3 A1 1.9984302
  HONO-0 :    1 B2 1.0000000
  LUNO+0 :    4 A1 0.0015698
  LUNO+1 :    5 A1 0.0005965
  LUNO+2 :    2 B1 0.0001925
  LUNO+3 :    6 A1 0.0000004

Properties will be evaluated at   0.000000,   0.000000,   0.000000 Bohr

Properties computed using the SCF density matrix

  Nuclear Dipole Moment: (a.u.)
     X:     0.0000      Y:     0.0000      Z:    -0.9399

  Electronic Dipole Moment: (a.u.)
     X:     0.0000      Y:     0.0000      Z:    -0.1205

  Dipole Moment: (a.u.)
     X:     0.0000      Y:     0.0000      Z:    -1.0604     Total:     1.0604

  Dipole Moment: (Debye)
     X:     0.0000      Y:     0.0000      Z:    -2.6953     Total:     2.6953

*** tstop() called on cqc05 at Thu Aug 20 19:54:18 2020
Module time:
	user time   =       0.29 seconds =       0.00 minutes
	system time =       0.00 seconds =       0.00 minutes
	total time  =          0 seconds =       0.00 minutes
Total time:
	user time   =       0.29 seconds =       0.00 minutes
	system time =       0.00 seconds =       0.00 minutes
	total time  =          0 seconds =       0.00 minutes

*** tstart() called on cqc05
*** at Thu Aug 20 19:54:18 2020

	Wfn Parameters:
	--------------------
	Wavefunction         = CCSD
	Number of irreps     = 4
	Number of MOs        = 32
	Number of active MOs = 31
	AO-Basis             = NONE
	Semicanonical        = false
	Reference            = UHF
	Print Level          = 1

	IRREP	# MOs	# FZDC	# DOCC	# SOCC	# VIRT	# FZVR
	-----	-----	------	------	------	------	------
	 A1	   16	    1	    2	    0	    13	    0
	 A2	   2	    0	    0	    0	    2	    0
	 B1	   7	    0	    1	    0	    6	    0
	 B2	   7	    0	    0	    1	    6	    0
	Transforming integrals...
	IWL integrals will be deleted.
	(OO|OO)...
	Presorting SO-basis two-electron integrals.
	Sorting File: SO Ints (nn|nn) nbuckets = 1
	Transforming the one-electron integrals and constructing Fock matrices
	Starting AA/AB first half-transformation.
	Sorting AA/AB half-transformed integrals.
	Starting BB first half-transformation.
	Sorting BB half-transformed integrals.
	First half integral transformation complete.
	Starting AA second half-transformation.
	Starting AB second half-transformation.
	Starting BB second half-transformation.
	Two-electron integral transformation complete.
	(OO|OV)...
	Starting AA second half-transformation.
	Starting AB second half-transformation.
	Starting BB second half-transformation.
	Two-electron integral transformation complete.
	(OO|VV)...
	Starting AA second half-transformation.
	Starting AB second half-transformation.
	Starting BB second half-transformation.
	Two-electron integral transformation complete.
	(OV|OO)...
	Starting AA/AB first half-transformation.
	Sorting AA/AB half-transformed integrals.
	Starting BB first half-transformation.
	Sorting BB half-transformed integrals.
	First half integral transformation complete.
	Starting AA second half-transformation.
	Starting AB second half-transformation.
	Starting BB second half-transformation.
	Two-electron integral transformation complete.
	(OV|OV)...
	Starting AA second half-transformation.
	Starting AB second half-transformation.
	Starting BB second half-transformation.
	Two-electron integral transformation complete.
	(OV|VV)...
	Starting AA second half-transformation.
	Starting AB second half-transformation.
	Starting BB second half-transformation.
	Two-electron integral transformation complete.
	(VV|OO)...
	Starting AA/AB first half-transformation.
	Sorting AA/AB half-transformed integrals.
	Starting BB first half-transformation.
	Sorting BB half-transformed integrals.
	First half integral transformation complete.
	Starting AA second half-transformation.
	Starting AB second half-transformation.
	Starting BB second half-transformation.
	Two-electron integral transformation complete.
	(VV|OV)...
	Starting AA second half-transformation.
	Starting AB second half-transformation.
	Starting BB second half-transformation.
	Two-electron integral transformation complete.
	(VV|VV)...
	Starting AA second half-transformation.
	Starting AB second half-transformation.
	Starting BB second half-transformation.
	Two-electron integral transformation complete.
	Frozen core energy     =    -76.53341100962777

	Size of irrep 0 of <AB|CD> integrals:      0.012 (MW) /      0.095 (MB)
	Size of irrep 1 of <AB|CD> integrals:      0.004 (MW) /      0.031 (MB)
	Size of irrep 2 of <AB|CD> integrals:      0.008 (MW) /      0.065 (MB)
	Size of irrep 3 of <AB|CD> integrals:      0.008 (MW) /      0.065 (MB)
	Total:                                     0.032 (MW) /      0.255 (MB)

	Size of irrep 0 of <ab|cd> integrals:      0.013 (MW) /      0.106 (MB)
	Size of irrep 1 of <ab|cd> integrals:      0.005 (MW) /      0.037 (MB)
	Size of irrep 2 of <ab|cd> integrals:      0.008 (MW) /      0.068 (MB)
	Size of irrep 3 of <ab|cd> integrals:      0.011 (MW) /      0.085 (MB)
	Total:                                     0.037 (MW) /      0.295 (MB)

	Size of irrep 0 of <Ab|Cd> integrals:      0.063 (MW) /      0.504 (MB)
	Size of irrep 1 of <Ab|Cd> integrals:      0.017 (MW) /      0.135 (MB)
	Size of irrep 2 of <Ab|Cd> integrals:      0.033 (MW) /      0.265 (MB)
	Size of irrep 3 of <Ab|Cd> integrals:      0.037 (MW) /      0.298 (MB)
	Total:                                     0.150 (MW) /      1.202 (MB)

	Size of irrep 0 of <IA|BC> integrals:      0.009 (MW) /      0.074 (MB)
	Size of irrep 1 of <IA|BC> integrals:      0.002 (MW) /      0.016 (MB)
	Size of irrep 2 of <IA|BC> integrals:      0.005 (MW) /      0.039 (MB)
	Size of irrep 3 of <IA|BC> integrals:      0.005 (MW) /      0.039 (MB)
	Total:                                     0.021 (MW) /      0.168 (MB)

	Size of irrep 0 of <ia|bc> integrals:      0.008 (MW) /      0.066 (MB)
	Size of irrep 1 of <ia|bc> integrals:      0.001 (MW) /      0.012 (MB)
	Size of irrep 2 of <ia|bc> integrals:      0.005 (MW) /      0.037 (MB)
	Size of irrep 3 of <ia|bc> integrals:      0.003 (MW) /      0.026 (MB)
	Total:                                     0.018 (MW) /      0.141 (MB)

	Size of irrep 0 of <Ia|Bc> integrals:      0.010 (MW) /      0.078 (MB)
	Size of irrep 1 of <Ia|Bc> integrals:      0.002 (MW) /      0.018 (MB)
	Size of irrep 2 of <Ia|Bc> integrals:      0.005 (MW) /      0.039 (MB)
	Size of irrep 3 of <Ia|Bc> integrals:      0.006 (MW) /      0.045 (MB)
	Total:                                     0.023 (MW) /      0.180 (MB)

	Size of irrep 0 of <iA|bC> integrals:      0.008 (MW) /      0.064 (MB)
	Size of irrep 1 of <iA|bC> integrals:      0.001 (MW) /      0.010 (MB)
	Size of irrep 2 of <iA|bC> integrals:      0.005 (MW) /      0.036 (MB)
	Size of irrep 3 of <iA|bC> integrals:      0.003 (MW) /      0.022 (MB)
	Total:                                     0.017 (MW) /      0.133 (MB)

	Size of irrep 0 of tIjAb amplitudes:       0.001 (MW) /      0.010 (MB)
	Size of irrep 1 of tIjAb amplitudes:       0.000 (MW) /      0.001 (MB)
	Size of irrep 2 of tIjAb amplitudes:       0.001 (MW) /      0.006 (MB)
	Size of irrep 3 of tIjAb amplitudes:       0.000 (MW) /      0.003 (MB)
	Total:                                     0.002 (MW) /      0.020 (MB)

	Nuclear Rep. energy          =      4.75164369234244
	SCF energy                   =    -99.50633523875399
	One-electron energy          =    -44.74956743690501
	Two-electron (AA) energy     =      4.52053574721146
	Two-electron (BB) energy     =      2.11551967720226
	Two-electron (AB) energy     =     10.38894409102266
	Two-electron energy          =     17.02499951543638
	Reference energy             =    -99.50633523875396

*** tstop() called on cqc05 at Thu Aug 20 19:54:19 2020
Module time:
	user time   =       0.03 seconds =       0.00 minutes
	system time =       0.05 seconds =       0.00 minutes
	total time  =          1 seconds =       0.02 minutes
Total time:
	user time   =       0.33 seconds =       0.01 minutes
	system time =       0.05 seconds =       0.00 minutes
	total time  =          1 seconds =       0.02 minutes

*** tstart() called on cqc05
*** at Thu Aug 20 19:54:19 2020

            **************************
            *                        *
            *        CCENERGY        *
            *                        *
            **************************

    Nuclear Rep. energy (wfn)     =    4.751643692342439
    SCF energy          (wfn)     =  -99.506335238753991
    Reference energy    (file100) =  -99.506335238753962

    Input parameters:
    -----------------
    Wave function   =     CCSD
    Reference wfn   =     UHF
    Brueckner       =     No
    Memory (Mbytes) =     250000.0
    Maxiter         =     50
    R_Convergence   =     1.0e-07
    E_Convergence   =     1.0e-06
    Restart         =     Yes
    DIIS            =     Yes
    AO Basis        =     NONE
    ABCD            =     NEW
    Cache Level     =     2
    Cache Type      =     LRU
    Print Level     =     1
    Num. of threads =     4
    # Amps to Print =     10
    Print MP2 Amps? =     No
    Analyze T2 Amps =     No
    Print Pair Ener =     No
    Local CC        =     No
    SCS-MP2         =     False
    SCSN-MP2        =     False
    SCS-CCSD        =     False

MP2 correlation energy -0.1572162339058614
                Solving CC Amplitude Equations
                ------------------------------
  Iter             Energy              RMS        T1Diag      D1Diag    New D1Diag    D2Diag
  ----     ---------------------    ---------   ----------  ----------  ----------   --------
     0        -0.157216233905861    0.000e+00    0.000000    0.000000    0.000000    0.000000
     1        -0.166891897550227    3.374e-02    0.009915    0.000000    0.000000    0.000000
     2        -0.170157285336097    9.996e-03    0.011120    0.000000    0.000000    0.000000
     3        -0.170907756592920    4.623e-03    0.012488    0.000000    0.000000    0.000000
     4        -0.170914267740815    1.726e-03    0.012658    0.000000    0.000000    0.000000
     5        -0.170924770485731    6.602e-04    0.012639    0.000000    0.000000    0.000000
     6        -0.170940168585457    2.072e-04    0.012626    0.000000    0.000000    0.000000
     7        -0.170940344488010    6.475e-05    0.012622    0.000000    0.000000    0.000000
     8        -0.170939729453314    2.131e-05    0.012623    0.000000    0.000000    0.000000
     9        -0.170939662956947    6.713e-06    0.012624    0.000000    0.000000    0.000000
    10        -0.170939676361613    2.208e-06    0.012624    0.000000    0.000000    0.000000
    11        -0.170939695821692    5.441e-07    0.012624    0.000000    0.000000    0.000000
    12        -0.170939707399731    1.342e-07    0.012624    0.000000    0.000000    0.000000
    13        -0.170939706384353    3.930e-08    0.012624    0.000000    0.000000    0.000000
    13        -0.170939706384353    3.930e-08    0.012624    0.000000    0.000000    0.000000

    Iterations converged.

    CCSD corr. energy   =   -0.170939706384353
    PPL corr. energy    =    0.027715854044578
    OS PPL corr. energy =    0.023016122564507
    SS PPL corr. energy =    0.004699731480071
    Largest TIA Amplitudes:
              1   0         0.0134903133
              2  15        -0.0110913078
              3  21        -0.0100231659
              1   1         0.0098994036
              1   4        -0.0059894805
              2  18        -0.0053355631
              3  24        -0.0046694425
              0   0        -0.0046081996
              1   3        -0.0039771137
              0   2         0.0038532833

    Largest Tia Amplitudes:
              2  15        -0.0107261184
              1   0         0.0094211087
              1   1         0.0075806278
              0   6        -0.0042890290
              1   3         0.0037638127
              2  18        -0.0036302652
              2  16        -0.0035852310
              1   4        -0.0035331258
              1   9        -0.0032394835
              0   9         0.0029436356

    Largest TIJAB Amplitudes:
      3   2  24  18        -0.0214947075
      3   2  13   6         0.0148739969
      3   1  24   7         0.0126544738
      2   1  18   7         0.0125688688
      3   2  14  11         0.0116281730
      2   1  18   0         0.0110481406
      3   1  24   0         0.0110245020
      3   2  24  15        -0.0108540862
      2   1  18   4        -0.0105596424
      3   1  24   4        -0.0105558826

    Largest Tijab Amplitudes:
      2   0  21  13        -0.0136048755
      2   1  18   7         0.0124348230
      1   0  24  21        -0.0123244469
      2   1  18   0         0.0110159349
      2   1  18   4        -0.0107397387
      2   1  18   8        -0.0104549112
      2   1  18   1         0.0104427352
      2   1  17   5         0.0093705975
      2   1  15   0         0.0086727201
      2   0  21  14         0.0086450822

    Largest TIjAb Amplitudes:
      2   2  18  18        -0.0398715889
      1   1   0   0        -0.0328520886
      3   2  24  18        -0.0279287530
      1   1   0   4         0.0257800660
      1   1   0   1        -0.0254844346
      2   0  13  21         0.0252549452
      3   0   6  21         0.0250318364
      1   1   4   0         0.0244237793
      1   1   1   0        -0.0238979655
      1   0  23  21        -0.0234343906

    SCF energy       (wfn)                    =  -99.506335238753991
    Reference energy (file100)                =  -99.506335238753962

    Opposite-spin MP2 correlation energy      =   -0.118677760370286
    Same-spin MP2 correlation energy          =   -0.038538473535576
    MP2 correlation energy                    =   -0.157216233905861
      * MP2 total energy                      =  -99.663551472659819

    Opposite-spin CCSD correlation energy     =   -0.133779934125999
    Same-spin CCSD correlation energy         =   -0.037159772192179
    CCSD correlation energy                   =   -0.170939706384353
      * CCSD total energy                     =  -99.677274945138322

*** tstop() called on cqc05 at Thu Aug 20 19:54:20 2020
Module time:
	user time   =       0.22 seconds =       0.00 minutes
	system time =       0.14 seconds =       0.00 minutes
	total time  =          1 seconds =       0.02 minutes
Total time:
	user time   =       0.55 seconds =       0.01 minutes
	system time =       0.19 seconds =       0.00 minutes
	total time  =          2 seconds =       0.03 minutes

*** Psi4 exiting successfully. Buy a developer a beer!
