                               Psi4 1.4a3.dev88

  ==> Input File <==

--------------------------------------------------------------------------
# Any line starting with the # character is a comment line
memory 250000 mb
molecule molecule{
0 2
Si         0.0000000000        0.0000000000        0.0525562661
H          0.0000000000        0.0000000000       -1.4644413475
}

set {
  reference uhf
  basis aug-cc-pV(d+d)Z
  scf_type OUT_OF_CORE
  freeze_core true
}

energy('ccsd(t)')
--------------------------------------------------------------------------

    Molecular point group: c2v

    Geometry (in Angstrom), charge = 0, multiplicity = 2:

       Center              X                  Y                   Z               Mass
    ------------   -----------------  -----------------  -----------------  -----------------
         SI           0.000000000000     0.000000000000     0.052747326997    27.976926534650
         H            0.000000000000     0.000000000000    -1.464250286603     1.007825032230

  Charge       = 0
  Multiplicity = 2
  Basis Set: AUG-CC-PV(D+D)Z
    Blend: AUG-CC-PV(D+D)Z

    Orbital Energies [Eh]
    ---------------------

    Alpha Occupied:

       1A1   -68.813228     2A1    -6.157047     1B1    -4.266308
       1B2    -4.257944     3A1    -4.255065     4A1    -0.659181
       5A1    -0.389202     2B1    -0.296050

    Alpha Virtual:

       2B2    -0.008051     6A1     0.049838     7A1     0.067867
       3B1     0.077453     3B2     0.091241     8A1     0.123906
       9A1     0.188435     4B1     0.208611     1A2     0.209406
      10A1     0.212645     4B2     0.217451    11A1     0.359166
      12A1     0.367883     5B2     0.459164     5B1     0.463623
       6B1     0.527902     6B2     0.552193    13A1     0.595225
       2A2     0.660219    14A1     0.660714    15A1     0.674323
       7B1     0.679107     7B2     0.686798    16A1     0.926674
      17A1     1.203402     8B2     1.921972     8B1     1.926256
      18A1     2.166517    19A1     3.322785     3A2     3.323413
       9B2     3.345405     9B1     3.358706    20A1     3.417733

    Beta Occupied:

       1A1   -68.808585     2A1    -6.151134     1B2    -4.255519
       3A1    -4.252906     1B1    -4.241998     4A1    -0.604750
       5A1    -0.366116

    Beta Virtual:

       2B2     0.002567     2B1     0.033060     6A1     0.052299
       7A1     0.069555     3B2     0.095803     3B1     0.121434
       8A1     0.129666     9A1     0.201047     4B2     0.218969
       4B1     0.238343     1A2     0.239539    10A1     0.241829
      11A1     0.365710    12A1     0.375455     5B2     0.461075
       5B1     0.475190     6B2     0.558960     6B1     0.594774
      13A1     0.600148    14A1     0.683483     7B2     0.688381
       2A2     0.705429    15A1     0.712215     7B1     0.719493
      16A1     0.935116    17A1     1.206925     8B2     1.921394
       8B1     1.930845    18A1     2.169714    19A1     3.328972
       3A2     3.330304     9B2     3.345962     9B1     3.365458
      20A1     3.420854

    Final Occupation by Irrep:
             A1    A2    B1    B2
    DOCC [     5,    0,    1,    1 ]
    SOCC [     0,    0,    1,    0 ]

  @UHF Final Energy:  -289.43225600470356

   => Energetics <=

    Nuclear Repulsion Energy =              4.8836470690279272
    One-Electron Energy =                -410.8567732256469185
    Two-Electron Energy =                 116.5408701519154704
    Total Energy =                       -289.4322560047035040

  UHF NO Occupations:
  HONO-2 :    4 A1 1.9998291
  HONO-1 :    5 A1 1.9895507
  HONO-0 :    2 B1 1.0000000
  LUNO+0 :    6 A1 0.0104493
  LUNO+1 :    7 A1 0.0001709
  LUNO+2 :    3 B1 0.0000005
  LUNO+3 :    8 A1 0.0000001

Computation Completed

Properties will be evaluated at   0.000000,   0.000000,   0.000000 [a0]

Properties computed using the SCF density matrix

  Nuclear Dipole Moment: [e a0]
     X:     0.0000      Y:     0.0000      Z:    -1.3715

  Electronic Dipole Moment: [e a0]
     X:     0.0000      Y:     0.0000      Z:     1.2714

  Dipole Moment: [e a0]
     X:     0.0000      Y:     0.0000      Z:    -0.1002     Total:     0.1002

  Dipole Moment: [D]
     X:     0.0000      Y:     0.0000      Z:    -0.2547     Total:     0.2547

*** tstop() called on n412-039.vsc4.prov at Tue Jan 26 18:37:27 2021
Module time:
	user time   =      17.37 seconds =       0.29 minutes
	system time =       1.68 seconds =       0.03 minutes
	total time  =          2 seconds =       0.03 minutes
Total time:
	user time   =      17.37 seconds =       0.29 minutes
	system time =       1.68 seconds =       0.03 minutes
	total time  =          2 seconds =       0.03 minutes

*** tstart() called on n412-039.vsc4.prov
*** at Tue Jan 26 18:37:27 2021

	Wfn Parameters:
	--------------------
	Wavefunction         = CCSD_T
	Number of irreps     = 4
	Number of MOs        = 41
	Number of active MOs = 36
	AO-Basis             = NONE
	Semicanonical        = false
	Reference            = UHF
	Print Level          = 1

	IRREP	# MOs	# FZDC	# DOCC	# SOCC	# VIRT	# FZVR
	-----	-----	------	------	------	------	------
	 A1	   20	    3	    2	    0	    15	    0
	 A2	   3	    0	    0	    0	    3	    0
	 B1	   9	    1	    0	    1	    7	    0
	 B2	   9	    1	    0	    0	    8	    0
	Transforming integrals...
	IWL integrals will be deleted.
	(OO|OO)...
	Presorting SO-basis two-electron integrals.
	Sorting File: SO Ints (nn|nn) nbuckets = 1
	Constructing frozen core operators
	Starting AA/AB first half-transformation.
	Sorting AA/AB half-transformed integrals.
	Starting BB first half-transformation.
	Sorting BB half-transformed integrals.
	First half integral transformation complete.
	Starting AA second half-transformation.
	Starting AB second half-transformation.
	Starting BB second half-transformation.
	Two-electron integral transformation complete.
	(OO|OV)...
	Starting AA second half-transformation.
	Starting AB second half-transformation.
	Starting BB second half-transformation.
	Two-electron integral transformation complete.
	(OO|VV)...
	Starting AA second half-transformation.
	Starting AB second half-transformation.
	Starting BB second half-transformation.
	Two-electron integral transformation complete.
	(OV|OO)...
	Starting AA/AB first half-transformation.
	Sorting AA/AB half-transformed integrals.
	Starting BB first half-transformation.
	Sorting BB half-transformed integrals.
	First half integral transformation complete.
	Starting AA second half-transformation.
	Starting AB second half-transformation.
	Starting BB second half-transformation.
	Two-electron integral transformation complete.
	(OV|OV)...
	Starting AA second half-transformation.
	Starting AB second half-transformation.
	Starting BB second half-transformation.
	Two-electron integral transformation complete.
	(OV|VV)...
	Starting AA second half-transformation.
	Starting AB second half-transformation.
	Starting BB second half-transformation.
	Two-electron integral transformation complete.
	(VV|OO)...
	Starting AA/AB first half-transformation.
	Sorting AA/AB half-transformed integrals.
	Starting BB first half-transformation.
	Sorting BB half-transformed integrals.
	First half integral transformation complete.
	Starting AA second half-transformation.
	Starting AB second half-transformation.
	Starting BB second half-transformation.
	Two-electron integral transformation complete.
	(VV|OV)...
	Starting AA second half-transformation.
	Starting AB second half-transformation.
	Starting BB second half-transformation.
	Two-electron integral transformation complete.
	(VV|VV)...
	Starting AA second half-transformation.
	Starting AB second half-transformation.
	Starting BB second half-transformation.
	Two-electron integral transformation complete.
	Frozen core energy     =   -288.65959599123664

	Size of irrep 0 of <AB|CD> integrals:      0.025 (MW) /      0.197 (MB)
	Size of irrep 1 of <AB|CD> integrals:      0.010 (MW) /      0.082 (MB)
	Size of irrep 2 of <AB|CD> integrals:      0.017 (MW) /      0.133 (MB)
	Size of irrep 3 of <AB|CD> integrals:      0.020 (MW) /      0.159 (MB)
	Total:                                     0.071 (MW) /      0.571 (MB)

	Size of irrep 0 of <ab|cd> integrals:      0.027 (MW) /      0.215 (MB)
	Size of irrep 1 of <ab|cd> integrals:      0.012 (MW) /      0.095 (MB)
	Size of irrep 2 of <ab|cd> integrals:      0.021 (MW) /      0.166 (MB)
	Size of irrep 3 of <ab|cd> integrals:      0.021 (MW) /      0.166 (MB)
	Total:                                     0.080 (MW) /      0.642 (MB)

	Size of irrep 0 of <Ab|Cd> integrals:      0.125 (MW) /      1.003 (MB)
	Size of irrep 1 of <Ab|Cd> integrals:      0.044 (MW) /      0.353 (MB)
	Size of irrep 2 of <Ab|Cd> integrals:      0.075 (MW) /      0.596 (MB)
	Size of irrep 3 of <Ab|Cd> integrals:      0.081 (MW) /      0.650 (MB)
	Total:                                     0.325 (MW) /      2.601 (MB)

	Size of irrep 0 of <IA|BC> integrals:      0.013 (MW) /      0.103 (MB)
	Size of irrep 1 of <IA|BC> integrals:      0.003 (MW) /      0.023 (MB)
	Size of irrep 2 of <IA|BC> integrals:      0.007 (MW) /      0.060 (MB)
	Size of irrep 3 of <IA|BC> integrals:      0.005 (MW) /      0.043 (MB)
	Total:                                     0.029 (MW) /      0.228 (MB)

	Size of irrep 0 of <ia|bc> integrals:      0.011 (MW) /      0.087 (MB)
	Size of irrep 1 of <ia|bc> integrals:      0.001 (MW) /      0.010 (MB)
	Size of irrep 2 of <ia|bc> integrals:      0.005 (MW) /      0.037 (MB)
	Size of irrep 3 of <ia|bc> integrals:      0.005 (MW) /      0.037 (MB)
	Total:                                     0.021 (MW) /      0.171 (MB)

	Size of irrep 0 of <Ia|Bc> integrals:      0.013 (MW) /      0.108 (MB)
	Size of irrep 1 of <Ia|Bc> integrals:      0.003 (MW) /      0.024 (MB)
	Size of irrep 2 of <Ia|Bc> integrals:      0.008 (MW) /      0.068 (MB)
	Size of irrep 3 of <Ia|Bc> integrals:      0.005 (MW) /      0.043 (MB)
	Total:                                     0.030 (MW) /      0.242 (MB)

	Size of irrep 0 of <iA|bC> integrals:      0.011 (MW) /      0.085 (MB)
	Size of irrep 1 of <iA|bC> integrals:      0.001 (MW) /      0.010 (MB)
	Size of irrep 2 of <iA|bC> integrals:      0.004 (MW) /      0.031 (MB)
	Size of irrep 3 of <iA|bC> integrals:      0.005 (MW) /      0.036 (MB)
	Total:                                     0.020 (MW) /      0.162 (MB)

	Size of irrep 0 of tIjAb amplitudes:       0.001 (MW) /      0.011 (MB)
	Size of irrep 1 of tIjAb amplitudes:       0.000 (MW) /      0.000 (MB)
	Size of irrep 2 of tIjAb amplitudes:       0.001 (MW) /      0.004 (MB)
	Size of irrep 3 of tIjAb amplitudes:       0.000 (MW) /      0.000 (MB)
	Total:                                     0.002 (MW) /      0.016 (MB)

	Nuclear Rep. energy          =      4.88364706902793
	SCF energy                   =   -289.43225600470356
	One-electron energy          =     -8.99731626409143
	Two-electron (AA) energy     =      0.84697183288539
	Two-electron (BB) energy     =      0.26808500365499
	Two-electron (AB) energy     =      2.22595234505653
	Two-electron energy          =      3.34100918159690
	Reference energy             =   -289.43225600470322

*** tstop() called on n412-039.vsc4.prov at Tue Jan 26 18:37:28 2021
Module time:
	user time   =       0.07 seconds =       0.00 minutes
	system time =       0.14 seconds =       0.00 minutes
	total time  =          1 seconds =       0.02 minutes
Total time:
	user time   =      17.44 seconds =       0.29 minutes
	system time =       1.82 seconds =       0.03 minutes
	total time  =          3 seconds =       0.05 minutes
            **************************
            *                        *
            *        CCENERGY        *
            *                        *
            **************************

    Nuclear Rep. energy (wfn)     =    4.883647069027927
    SCF energy          (wfn)     = -289.432256004703561
    Reference energy    (file100) = -289.432256004703220

    Input parameters:
    -----------------
    Wave function   =     CCSD_T
    Reference wfn   =     UHF
    Brueckner       =     No
    Memory (Mbytes) =     250000.0
    Maxiter         =     50
    R_Convergence   =     1.0e-07
    E_Convergence   =     1.0e-06
    Restart         =     Yes
    DIIS            =     Yes
    AO Basis        =     NONE
    ABCD            =     NEW
    Cache Level     =     2
    Cache Type      =     LRU
    Print Level     =     1
    Num. of threads =     48
    # Amps to Print =     10
    Print MP2 Amps? =     No
    Analyze T2 Amps =     No
    Print Pair Ener =     No
    Local CC        =     No
    SCS-MP2         =     False
    SCSN-MP2        =     False
    SCS-CCSD        =     False

MP2 correlation energy -0.0680350345389458
                Solving CC Amplitude Equations
                ------------------------------
  Iter             Energy              RMS        T1Diag      D1Diag    New D1Diag    D2Diag
  ----     ---------------------    ---------   ----------  ----------  ----------   --------
     0        -0.068035034538946    0.000e+00    0.000000    0.000000    0.000000    0.000000
     1        -0.084761453034213    6.449e-02    0.011073    0.000000    0.000000    0.000000
     2        -0.092982868490593    2.943e-02    0.022060    0.000000    0.000000    0.000000
     3        -0.093505803798537    8.746e-03    0.026369    0.000000    0.000000    0.000000
     4        -0.093636606491576    2.135e-03    0.027052    0.000000    0.000000    0.000000
     5        -0.093621317119281    7.328e-04    0.027120    0.000000    0.000000    0.000000
     6        -0.093612480278159    2.718e-04    0.027108    0.000000    0.000000    0.000000
     7        -0.093618955717125    7.892e-05    0.027117    0.000000    0.000000    0.000000
     8        -0.093618889966545    2.491e-05    0.027118    0.000000    0.000000    0.000000
     9        -0.093618233186968    8.369e-06    0.027118    0.000000    0.000000    0.000000
    10        -0.093618117551688    3.057e-06    0.027118    0.000000    0.000000    0.000000
    11        -0.093618184170706    1.170e-06    0.027118    0.000000    0.000000    0.000000
    12        -0.093618205328764    4.536e-07    0.027118    0.000000    0.000000    0.000000
    13        -0.093618191881530    2.018e-07    0.027118    0.000000    0.000000    0.000000
    14        -0.093618191656683    4.931e-08    0.027118    0.000000    0.000000    0.000000

    Iterations converged.

    Largest TIA Amplitudes:
              1   3         0.0213622545
              1   4        -0.0194711060
              0   4         0.0165996616
              1   8        -0.0140053393
              1   2        -0.0133858311
              2  19        -0.0109583439
              0   8         0.0106748144
              1   7         0.0082212499
              1  11         0.0051392913
              0   9        -0.0049162245

    Largest Tia Amplitudes:
              1   3        -0.0248271879
              0   3        -0.0233212988
              1   0         0.0089522656
              0   7        -0.0070866338
              0   8         0.0069855795
              0   2         0.0067272522
              0   0         0.0061835573
              1   2         0.0061687656
              0   5        -0.0059324256
              1   7        -0.0056785839

    Largest TIJAB Amplitudes:
      2   1  19   3        -0.0338541644
      2   1  22   3        -0.0183302680
      2   1  19   2         0.0154868273
      2   0  25  15         0.0146700030
      2   1  19   7        -0.0129128475
      2   1  21   7        -0.0123692954
      2   1  20   3         0.0119868119
      2   1  27  15         0.0117093736
      1   0  27  25        -0.0107464021
      2   1  22   7        -0.0102683402

    Largest Tijab Amplitudes:
      1   0  20  19         0.0094207363
      1   0  28  26         0.0087349286
      1   0  20  18         0.0085902110
      1   0   6   3        -0.0075355645
      1   0  23  19         0.0069794456
      1   0  29  26        -0.0059643224
      1   0  28  27         0.0059258316
      1   0   8   6        -0.0058937413
      1   0  23  18         0.0058750160
      1   0  10   8        -0.0056832241

    Largest TIjAb Amplitudes:
      1   1  25  26        -0.0643201943
      1   1   3   3        -0.0556748222
      0   0  25  26         0.0406383592
      0   1  25  26         0.0401038125
      1   1  25  27        -0.0391752986
      2   1  15  26         0.0343081437
      1   1  26  26        -0.0335912452
      2   1  19   3        -0.0310889956
      2   0  15  26         0.0301396095
      1   1   7   7        -0.0297240839

    SCF energy       (wfn)                    = -289.432256004703561
    Reference energy (file100)                = -289.432256004703220

    Opposite-spin MP2 correlation energy      =   -0.059653064761790
    Same-spin MP2 correlation energy          =   -0.008381969777156
    Singles MP2 correlation energy            =   -0.000000000000000
    MP2 correlation energy                    =   -0.068035034538946
      * MP2 total energy                      = -289.500291039242143

    Opposite-spin CCSD correlation energy     =   -0.084135112366464
    Same-spin CCSD correlation energy         =   -0.009483079290219
    Singles CCSD correlation energy           =    0.000000000000000
    CCSD correlation energy                   =   -0.093618191656683
      * CCSD total energy                     = -289.525874196359894

            **************************
            *                        *
            *        CCTRIPLES       *
            *                        *
            **************************

    Wave function   =    CCSD_T
    Reference wfn   =      UHF

    Nuclear Rep. energy (wfn)                =    4.883647069027927
    SCF energy          (wfn)                = -289.432256004703561
    Reference energy    (file100)            = -289.432256004703220

      * CCSD(T) total energy                     = -289.527979238977139
*** Psi4 exiting successfully. Buy a developer a beer!
