                               Psi4 1.4a3.dev88

  ==> Input File <==

--------------------------------------------------------------------------
# Any line starting with the # character is a comment line
memory 250000 mb
molecule molecule{
0 2
Si         0.0000000000        0.0000000000        0.0525562661
H          0.0000000000        0.0000000000       -1.4644413475
}

set {
  reference uhf
  basis aug-cc-pV(Q+d)Z
  scf_type OUT_OF_CORE
  freeze_core true
}

energy('ccsd(t)')
--------------------------------------------------------------------------

    Molecular point group: c2v

    Geometry (in Angstrom), charge = 0, multiplicity = 2:

       Center              X                  Y                   Z               Mass
    ------------   -----------------  -----------------  -----------------  -----------------
         SI           0.000000000000     0.000000000000     0.052747326997    27.976926534650
         H            0.000000000000     0.000000000000    -1.464250286603     1.007825032230

  Charge       = 0
  Multiplicity = 2
  Basis Set: AUG-CC-PV(Q+D)Z
    Blend: AUG-CC-PV(Q+D)Z

    Orbital Energies [Eh]
    ---------------------

    Alpha Occupied:

       1A1   -68.807902     2A1    -6.153462     1B1    -4.263167
       1B2    -4.253875     3A1    -4.251467     4A1    -0.658021
       5A1    -0.389685     2B1    -0.297354

    Alpha Virtual:

       2B2    -0.007465     6A1     0.030996     7A1     0.046083
       3B1     0.054142     3B2     0.062898     8A1     0.096827
       4B2     0.113299     4B1     0.114408     9A1     0.117122
       1A2     0.117298    10A1     0.129256    11A1     0.179723
      12A1     0.223418     5B1     0.251081     5B2     0.253789
       6B1     0.276690     6B2     0.293287    13A1     0.317688
       2A2     0.326498    14A1     0.329386     7B1     0.332057
       7B2     0.333009     3A2     0.335449     8B1     0.335521
      15A1     0.335966     8B2     0.336968    16A1     0.378568
      17A1     0.410485     9B2     0.443277     9B1     0.443388
      18A1     0.478006    19A1     0.646660    10B2     0.707450
      10B1     0.711730    20A1     0.779672     4A2     0.779751
      21A1     0.788160     5A2     0.834024    22A1     0.834231
      11B2     0.843044    11B1     0.844260    23A1     0.912009
      12B1     0.946733    12B2     0.946735    24A1     0.973770
       6A2     0.974122    13B2     1.017581    13B1     1.020685
      25A1     1.021865     7A2     1.021865    14B2     1.030118
      14B1     1.030296    15B1     1.050301    15B2     1.050405
      26A1     1.080099    27A1     1.176224    16B2     1.187066
      16B1     1.197612    28A1     1.207300     8A2     1.208379
      29A1     1.220439    17B2     1.505088    17B1     1.515381
      30A1     1.575799    31A1     1.634443    18B2     1.773545
      18B1     1.773548    19B2     1.899770    19B1     1.908653
       9A2     1.946873    32A1     1.947088    33A1     1.997551
      34A1     2.136310    10A2     2.143570    35A1     2.147624
      20B2     2.222063    20B1     2.235539    21B2     2.376068
      21B1     2.376215    36A1     2.388258    11A2     2.389169
      22B2     2.400733    22B1     2.412423    37A1     2.424236
      12A2     2.530939    38A1     2.531035    39A1     2.613097
      13A2     2.652023    40A1     2.652023    23B2     2.664099
      23B1     2.664481    24B2     2.687883    24B1     2.701313
      41A1     2.891485    14A2     3.049489    42A1     3.050274
      25B2     3.328246    25B1     3.338840    43A1     3.568435
      26B2     3.612231    26B1     3.623403    44A1     3.903469
      27B2     5.596783    27B1     5.613680    45A1     6.078923
      15A2     6.079102    28B2     6.121627    28B1     6.132045
      46A1     6.363905    29B2     6.665435    29B1     6.665435
      47A1     6.893061    16A2     6.893087    30B2     7.087642
      30B1     7.094667    48A1     7.147780    49A1     7.711944
      50A1     7.997879    31B2     8.556955    31B1     8.561092
      17A2     8.587868    51A1     8.587881    52A1     9.066274
      32B2     9.183355    32B1     9.187732    53A1     9.512388
      54A1    12.331860

    Beta Occupied:

       1A1   -68.803292     2A1    -6.147419     1B2    -4.251387
       3A1    -4.249495     1B1    -4.237950     4A1    -0.604102
       5A1    -0.366755

    Beta Virtual:

       2B2     0.001845     2B1     0.029488     6A1     0.032506
       7A1     0.046682     3B2     0.066040     3B1     0.087741
       8A1     0.099277     4B2     0.113487     4B1     0.120954
       1A2     0.124658     9A1     0.126136    10A1     0.133984
      11A1     0.183705    12A1     0.229046     5B2     0.255117
       5B1     0.265751     6B2     0.297475    13A1     0.321761
       6B1     0.323958     7B2     0.334137     2A2     0.338446
      14A1     0.338948     7B1     0.340146     8B2     0.341492
       8B1     0.352683     3A2     0.365557    15A1     0.368198
      16A1     0.389520    17A1     0.414985     9B2     0.445238
       9B1     0.461572    18A1     0.482319    19A1     0.651641
      10B2     0.708238    10B1     0.719219     4A2     0.785180
      20A1     0.785588    21A1     0.791070    11B2     0.843229
       5A2     0.866584    22A1     0.868033    11B1     0.870854
      23A1     0.919172    12B2     0.970877    12B1     0.971332
      24A1     0.986897     6A2     0.988123    13B2     1.018324
      25A1     1.034450     7A2     1.034457    13B1     1.036557
      14B2     1.039199    14B1     1.043016    15B2     1.056395
      26A1     1.088890    15B1     1.093587    27A1     1.178127
      16B2     1.188735    16B1     1.210486    28A1     1.213719
       8A2     1.215595    29A1     1.230421    17B2     1.505797
      17B1     1.523530    30A1     1.585973    31A1     1.637814
      18B2     1.776938    18B1     1.776952    19B2     1.900180
      19B1     1.917485     9A2     1.960733    32A1     1.962143
      33A1     1.999001    34A1     2.138519    10A2     2.147177
      35A1     2.153368    20B2     2.222944    20B1     2.248652
      21B2     2.393620    36A1     2.394537    21B1     2.398111
      11A2     2.399514    22B2     2.408037    22B1     2.426012
      37A1     2.432222    12A2     2.539537    38A1     2.540211
      39A1     2.612621    13A2     2.672228    40A1     2.672230
      23B2     2.673555    23B1     2.677297    24B2     2.691993
      24B1     2.712848    41A1     2.897459    14A2     3.056824
      42A1     3.058998    25B2     3.328770    25B1     3.344907
      43A1     3.570105    26B2     3.613354    26B1     3.633263
      44A1     3.905550    27B2     5.599689    27B1     5.633521
      45A1     6.085361    15A2     6.085744    28B2     6.122148
      28B1     6.137787    46A1     6.366857    29B2     6.666011
      29B1     6.666011    47A1     6.893919    16A2     6.893956
      30B2     7.087685    30B1     7.097302    48A1     7.149044
      49A1     7.713114    50A1     7.997685    31B2     8.556244
      31B1     8.561385    17A2     8.587803    51A1     8.587822
      52A1     9.068584    32B2     9.182956    32B1     9.188404
      53A1     9.512376    54A1    12.335593

    Final Occupation by Irrep:
             A1    A2    B1    B2
    DOCC [     5,    0,    1,    1 ]
    SOCC [     0,    0,    1,    0 ]

  @UHF Final Energy:  -289.44232583935195

   => Energetics <=

    Nuclear Repulsion Energy =              4.8836470690279272
    One-Electron Energy =                -410.9166142591216726
    Two-Electron Energy =                 116.5906413507418051
    Total Energy =                       -289.4423258393519518

  UHF NO Occupations:
  HONO-2 :    4 A1 1.9997296
  HONO-1 :    5 A1 1.9882884
  HONO-0 :    2 B1 1.0000000
  LUNO+0 :    6 A1 0.0117116
  LUNO+1 :    7 A1 0.0002704
  LUNO+2 :    3 B1 0.0000021
  LUNO+3 :    2 B2 0.0000003

Computation Completed

Properties will be evaluated at   0.000000,   0.000000,   0.000000 [a0]

Properties computed using the SCF density matrix

  Nuclear Dipole Moment: [e a0]
     X:     0.0000      Y:     0.0000      Z:    -1.3715

  Electronic Dipole Moment: [e a0]
     X:     0.0000      Y:     0.0000      Z:     1.2751

  Dipole Moment: [e a0]
     X:     0.0000      Y:     0.0000      Z:    -0.0964     Total:     0.0964

  Dipole Moment: [D]
     X:     0.0000      Y:     0.0000      Z:    -0.2450     Total:     0.2450

*** tstop() called on l43 at Wed Jan 20 21:58:12 2021
Module time:
	user time   =      20.00 seconds =       0.33 minutes
	system time =       5.26 seconds =       0.09 minutes
	total time  =         17 seconds =       0.28 minutes
Total time:
	user time   =      20.00 seconds =       0.33 minutes
	system time =       5.26 seconds =       0.09 minutes
	total time  =         17 seconds =       0.28 minutes

*** tstart() called on l43
*** at Wed Jan 20 21:58:12 2021

	Wfn Parameters:
	--------------------
	Wavefunction         = CCSD_T
	Number of irreps     = 4
	Number of MOs        = 135
	Number of active MOs = 130
	AO-Basis             = NONE
	Semicanonical        = false
	Reference            = UHF
	Print Level          = 1

	IRREP	# MOs	# FZDC	# DOCC	# SOCC	# VIRT	# FZVR
	-----	-----	------	------	------	------	------
	 A1	   54	    3	    2	    0	    49	    0
	 A2	   17	    0	    0	    0	    17	    0
	 B1	   32	    1	    0	    1	    30	    0
	 B2	   32	    1	    0	    0	    31	    0
	Transforming integrals...
	IWL integrals will be deleted.
	(OO|OO)...
	Presorting SO-basis two-electron integrals.
	Sorting File: SO Ints (nn|nn) nbuckets = 1
	Constructing frozen core operators
	Starting AA/AB first half-transformation.
	Sorting AA/AB half-transformed integrals.
	Starting BB first half-transformation.
	Sorting BB half-transformed integrals.
	First half integral transformation complete.
	Starting AA second half-transformation.
	Starting AB second half-transformation.
	Starting BB second half-transformation.
	Two-electron integral transformation complete.
	(OO|OV)...
	Starting AA second half-transformation.
	Starting AB second half-transformation.
	Starting BB second half-transformation.
	Two-electron integral transformation complete.
	(OO|VV)...
	Starting AA second half-transformation.
	Starting AB second half-transformation.
	Starting BB second half-transformation.
	Two-electron integral transformation complete.
	(OV|OO)...
	Starting AA/AB first half-transformation.
	Sorting AA/AB half-transformed integrals.
	Starting BB first half-transformation.
	Sorting BB half-transformed integrals.
	First half integral transformation complete.
	Starting AA second half-transformation.
	Starting AB second half-transformation.
	Starting BB second half-transformation.
	Two-electron integral transformation complete.
	(OV|OV)...
	Starting AA second half-transformation.
	Starting AB second half-transformation.
	Starting BB second half-transformation.
	Two-electron integral transformation complete.
	(OV|VV)...
	Starting AA second half-transformation.
	Starting AB second half-transformation.
	Starting BB second half-transformation.
	Two-electron integral transformation complete.
	(VV|OO)...
	Starting AA/AB first half-transformation.
	Sorting AA/AB half-transformed integrals.
	Starting BB first half-transformation.
	Sorting BB half-transformed integrals.
	First half integral transformation complete.
	Starting AA second half-transformation.
	Starting AB second half-transformation.
	Starting BB second half-transformation.
	Two-electron integral transformation complete.
	(VV|OV)...
	Starting AA second half-transformation.
	Starting AB second half-transformation.
	Starting BB second half-transformation.
	Two-electron integral transformation complete.
	(VV|VV)...
	Starting AA second half-transformation.
	Starting AB second half-transformation.
	Starting BB second half-transformation.
	Two-electron integral transformation complete.
	Frozen core energy     =   -288.66517271857259

	Size of irrep 0 of <AB|CD> integrals:      4.893 (MW) /     39.144 (MB)
	Size of irrep 1 of <AB|CD> integrals:      3.108 (MW) /     24.865 (MB)
	Size of irrep 2 of <AB|CD> integrals:      3.988 (MW) /     31.904 (MB)
	Size of irrep 3 of <AB|CD> integrals:      4.117 (MW) /     32.935 (MB)
	Total:                                    16.106 (MW) /    128.848 (MB)

	Size of irrep 0 of <ab|cd> integrals:      5.027 (MW) /     40.213 (MB)
	Size of irrep 1 of <ab|cd> integrals:      3.218 (MW) /     25.747 (MB)
	Size of irrep 2 of <ab|cd> integrals:      4.186 (MW) /     33.489 (MB)
	Size of irrep 3 of <ab|cd> integrals:      4.186 (MW) /     33.489 (MB)
	Total:                                    16.617 (MW) /    132.938 (MB)

	Size of irrep 0 of <Ab|Cd> integrals:     20.986 (MW) /    167.884 (MB)
	Size of irrep 1 of <Ab|Cd> integrals:     12.652 (MW) /    101.218 (MB)
	Size of irrep 2 of <Ab|Cd> integrals:     16.346 (MW) /    130.767 (MB)
	Size of irrep 3 of <Ab|Cd> integrals:     16.606 (MW) /    132.845 (MB)
	Total:                                    66.589 (MW) /    532.714 (MB)

	Size of irrep 0 of <IA|BC> integrals:      0.583 (MW) /      4.660 (MB)
	Size of irrep 1 of <IA|BC> integrals:      0.229 (MW) /      1.834 (MB)
	Size of irrep 2 of <IA|BC> integrals:      0.435 (MW) /      3.483 (MB)
	Size of irrep 3 of <IA|BC> integrals:      0.321 (MW) /      2.565 (MB)
	Total:                                     1.568 (MW) /     12.541 (MB)

	Size of irrep 0 of <ia|bc> integrals:      0.452 (MW) /      3.616 (MB)
	Size of irrep 1 of <ia|bc> integrals:      0.122 (MW) /      0.976 (MB)
	Size of irrep 2 of <ia|bc> integrals:      0.254 (MW) /      2.030 (MB)
	Size of irrep 3 of <ia|bc> integrals:      0.254 (MW) /      2.030 (MB)
	Total:                                     1.081 (MW) /      8.651 (MB)

	Size of irrep 0 of <Ia|Bc> integrals:      0.591 (MW) /      4.728 (MB)
	Size of irrep 1 of <Ia|Bc> integrals:      0.231 (MW) /      1.850 (MB)
	Size of irrep 2 of <Ia|Bc> integrals:      0.449 (MW) /      3.590 (MB)
	Size of irrep 3 of <Ia|Bc> integrals:      0.322 (MW) /      2.575 (MB)
	Total:                                     1.593 (MW) /     12.743 (MB)

	Size of irrep 0 of <iA|bC> integrals:      0.449 (MW) /      3.592 (MB)
	Size of irrep 1 of <iA|bC> integrals:      0.121 (MW) /      0.968 (MB)
	Size of irrep 2 of <iA|bC> integrals:      0.243 (MW) /      1.941 (MB)
	Size of irrep 3 of <iA|bC> integrals:      0.253 (MW) /      2.021 (MB)
	Total:                                     1.065 (MW) /      8.521 (MB)

	Size of irrep 0 of tIjAb amplitudes:       0.018 (MW) /      0.147 (MB)
	Size of irrep 1 of tIjAb amplitudes:       0.000 (MW) /      0.000 (MB)
	Size of irrep 2 of tIjAb amplitudes:       0.008 (MW) /      0.065 (MB)
	Size of irrep 3 of tIjAb amplitudes:       0.000 (MW) /      0.000 (MB)
	Total:                                     0.026 (MW) /      0.211 (MB)

	Nuclear Rep. energy          =      4.88364706902793
	SCF energy                   =   -289.44232583935195
	One-electron energy          =     -9.00568407628264
	Two-electron (AA) energy     =      0.84786045317360
	Two-electron (BB) energy     =      0.26824507471662
	Two-electron (AB) energy     =      2.22877835858470
	Two-electron energy          =      3.34488388647493
	Reference energy             =   -289.44232583935241

*** tstop() called on l43 at Wed Jan 20 21:58:26 2021
Module time:
	user time   =       9.78 seconds =       0.16 minutes
	system time =       4.45 seconds =       0.07 minutes
	total time  =         14 seconds =       0.23 minutes
Total time:
	user time   =      29.78 seconds =       0.50 minutes
	system time =       9.71 seconds =       0.16 minutes
	total time  =         31 seconds =       0.52 minutes
            **************************
            *                        *
            *        CCENERGY        *
            *                        *
            **************************

    Nuclear Rep. energy (wfn)     =    4.883647069027927
    SCF energy          (wfn)     = -289.442325839351952
    Reference energy    (file100) = -289.442325839352407

    Input parameters:
    -----------------
    Wave function   =     CCSD_T
    Reference wfn   =     UHF
    Brueckner       =     No
    Memory (Mbytes) =     250000.0
    Maxiter         =     50
    R_Convergence   =     1.0e-07
    E_Convergence   =     1.0e-06
    Restart         =     Yes
    DIIS            =     Yes
    AO Basis        =     NONE
    ABCD            =     NEW
    Cache Level     =     2
    Cache Type      =     LRU
    Print Level     =     1
    Num. of threads =     48
    # Amps to Print =     10
    Print MP2 Amps? =     No
    Analyze T2 Amps =     No
    Print Pair Ener =     No
    Local CC        =     No
    SCS-MP2         =     False
    SCSN-MP2        =     False
    SCS-CCSD        =     False

MP2 correlation energy -0.0868875768490073
                Solving CC Amplitude Equations
                ------------------------------
  Iter             Energy              RMS        T1Diag      D1Diag    New D1Diag    D2Diag
  ----     ---------------------    ---------   ----------  ----------  ----------   --------
     0        -0.086887576849007    0.000e+00    0.000000    0.000000    0.000000    0.000000
     1        -0.100651000598100    6.106e-02    0.013014    0.000000    0.000000    0.000000
     2        -0.108402159618715    2.850e-02    0.023962    0.000000    0.000000    0.000000
     3        -0.108835894535060    8.314e-03    0.027803    0.000000    0.000000    0.000000
     4        -0.108925665825697    2.575e-03    0.028648    0.000000    0.000000    0.000000
     5        -0.108930885715339    9.518e-04    0.028816    0.000000    0.000000    0.000000
     6        -0.108923787862523    3.197e-04    0.028816    0.000000    0.000000    0.000000
     7        -0.108926939157986    1.141e-04    0.028813    0.000000    0.000000    0.000000
     8        -0.108928239852450    3.400e-05    0.028816    0.000000    0.000000    0.000000
     9        -0.108927642236219    1.220e-05    0.028816    0.000000    0.000000    0.000000
    10        -0.108927626163953    4.743e-06    0.028817    0.000000    0.000000    0.000000
    11        -0.108927607153102    1.998e-06    0.028817    0.000000    0.000000    0.000000
    12        -0.108927659097367    8.772e-07    0.028817    0.000000    0.000000    0.000000
    13        -0.108927675477721    3.496e-07    0.028817    0.000000    0.000000    0.000000
    14        -0.108927676713196    1.301e-07    0.028817    0.000000    0.000000    0.000000
    15        -0.108927674893322    5.134e-08    0.028817    0.000000    0.000000    0.000000

    Iterations converged.

    Largest TIA Amplitudes:
              1   7        -0.0208863879
              1   3         0.0183724907
              1   2         0.0130305083
              0   8         0.0129093784
              1   8         0.0121645714
              1   6         0.0121382271
              1   9        -0.0106532035
              2  68         0.0094340513
              0   3         0.0088289749
              1  16        -0.0086688201

    Largest Tia Amplitudes:
              1   4         0.0173307548
              0   4        -0.0170546791
              0   6         0.0158498119
              1   6        -0.0113808704
              0   7        -0.0109754611
              1   5        -0.0109311195
              1   7         0.0088384602
              0   9        -0.0073480592
              1   9         0.0069773659
              1  12         0.0067613796

      * MP2 total energy                      = -289.529213416201401
      * CCSD total energy                     = -289.551253514245730
      * CCSD(T) total energy                     = -289.554718148212373
*** Psi4 exiting successfully. Buy a developer a beer!
