                               Psi4 1.4a3.dev88

  ==> Input File <==

--------------------------------------------------------------------------
# Any line starting with the # character is a comment line
memory 250000 mb
molecule molecule{
0 1
C         -0.0131849130        0.0000000000       -0.7300158634
O          0.0640939097        0.0000000000        0.6915053898
H         -0.5186806976       -0.8893140541       -1.1100627930
H         -0.5186806976        0.8893140541       -1.1100627930
H          1.0094357309        0.0000000000       -1.0953577182
H         -0.8323439031        0.0000000000        1.0381148124
}

set {
  reference rhf
  basis aug-cc-pV(Q+d)Z
  scf_type OUT_OF_CORE
  freeze_core true
}

energy('ccsd(t)')
--------------------------------------------------------------------------

    Molecular point group: cs

    Geometry (in Angstrom), charge = 0, multiplicity = 1:

       Center              X                  Y                   Z               Mass
    ------------   -----------------  -----------------  -----------------  -----------------
         C            0.013183553264    -0.730177928584     0.000000000000    12.000000000000
         O           -0.064095269436     0.691343324616     0.000000000000    15.994914619570
         H            0.518679337864    -1.110224858184    -0.889314054100     1.007825032230
         H            0.518679337864    -1.110224858184     0.889314054100     1.007825032230
         H           -1.009437090636    -1.095519783384     0.000000000000     1.007825032230
         H            0.832342543364     1.037952747216     0.000000000000     1.007825032230

  Charge       = 0
  Multiplicity = 1
  Basis Set: AUG-CC-PV(Q+D)Z
    Blend: AUG-CC-PV(Q+D)Z

    Orbital Energies [Eh]
    ---------------------

    Doubly Occupied:

       1Ap   -20.556419     2Ap   -11.270047     3Ap    -1.355675
       4Ap    -0.926161     5Ap    -0.690505     1App   -0.620759
       6Ap    -0.592626     7Ap    -0.505045     2App   -0.452409

  @RHF Final Energy:  -115.09953159990900

   => Energetics <=

    Nuclear Repulsion Energy =             40.2957127388599616
    One-Electron Energy =                -236.8511937492815491
    Two-Electron Energy =                  81.4559494105126021
    Total Energy =                       -115.0995315999089996

  Dipole Moment: [D]
     X:     1.5008      Y:    -1.0145      Z:     0.0000     Total:     1.8115

      * MP2 total energy                      = -115.563094264363755
      * CCSD total energy                     = -115.576061965904231
      * CCSD(T) total energy                  = -115.593170165537487
*** Psi4 exiting successfully. Buy a developer a beer!
