                               Psi4 1.4a3.dev88

  ==> Input File <==

--------------------------------------------------------------------------
# Any line starting with the # character is a comment line
memory 250000 mb
molecule molecule{
0 1
C         -0.0131849130        0.0000000000       -0.7300158634
O          0.0640939097        0.0000000000        0.6915053898
H         -0.5186806976       -0.8893140541       -1.1100627930
H         -0.5186806976        0.8893140541       -1.1100627930
H          1.0094357309        0.0000000000       -1.0953577182
H         -0.8323439031        0.0000000000        1.0381148124
}

set {
  reference rhf
  basis aug-cc-pV(t+d)Z
  scf_type OUT_OF_CORE
  freeze_core true
}

energy('ccsd(t)')
--------------------------------------------------------------------------

    Molecular point group: cs

    Geometry (in Angstrom), charge = 0, multiplicity = 1:

       Center              X                  Y                   Z               Mass
    ------------   -----------------  -----------------  -----------------  -----------------
         C            0.013183553264    -0.730177928584     0.000000000000    12.000000000000
         O           -0.064095269436     0.691343324616     0.000000000000    15.994914619570
         H            0.518679337864    -1.110224858184    -0.889314054100     1.007825032230
         H            0.518679337864    -1.110224858184     0.889314054100     1.007825032230
         H           -1.009437090636    -1.095519783384     0.000000000000     1.007825032230
         H            0.832342543364     1.037952747216     0.000000000000     1.007825032230

  Charge       = 0
  Multiplicity = 1
  Basis Set: AUG-CC-PV(T+D)Z
    Blend: AUG-CC-PV(T+D)Z

    Orbital Energies [Eh]
    ---------------------

    Doubly Occupied:

       1Ap   -20.559097     2Ap   -11.270998     3Ap    -1.356380
       4Ap    -0.926304     5Ap    -0.690459     1App   -0.620617
       6Ap    -0.592525     7Ap    -0.504869     2App   -0.452185

  @RHF Final Energy:  -115.09203704039395

   => Energetics <=

    Nuclear Repulsion Energy =             40.2957127388599616
    One-Electron Energy =                -236.8286311741586303
    Two-Electron Energy =                  81.4408813949047072
    Total Energy =                       -115.0920370403939472

  Dipole Moment: [D]
     X:     1.5016      Y:    -1.0156      Z:     0.0000     Total:     1.8128

      * MP2 total energy                      = -115.529007841331207
      * CCSD total energy                     = -115.546486590783573
      * CCSD(T) total energy                  = -115.562357153165777
*** Psi4 exiting successfully. Buy a developer a beer!
