                               Psi4 1.4a3.dev88

  ==> Input File <==

--------------------------------------------------------------------------
# Any line starting with the # character is a comment line
memory 650000 mb
molecule molecule{
0 1
C         -0.0131849130        0.0000000000       -0.7300158634
O          0.0640939097        0.0000000000        0.6915053898
H         -0.5186806976       -0.8893140541       -1.1100627930
H         -0.5186806976        0.8893140541       -1.1100627930
H          1.0094357309        0.0000000000       -1.0953577182
H         -0.8323439031        0.0000000000        1.0381148124
}

set {
  reference rhf
  basis aug-cc-pV(6+d)Z
  scf_type OUT_OF_CORE
  freeze_core true
}

energy('ccsd(t)')
--------------------------------------------------------------------------

    Molecular point group: cs

    Geometry (in Angstrom), charge = 0, multiplicity = 1:

       Center              X                  Y                   Z               Mass
    ------------   -----------------  -----------------  -----------------  -----------------
         C            0.013183553264    -0.730177928584     0.000000000000    12.000000000000
         O           -0.064095269436     0.691343324616     0.000000000000    15.994914619570
         H            0.518679337864    -1.110224858184    -0.889314054100     1.007825032230
         H            0.518679337864    -1.110224858184     0.889314054100     1.007825032230
         H           -1.009437090636    -1.095519783384     0.000000000000     1.007825032230
         H            0.832342543364     1.037952747216     0.000000000000     1.007825032230

  Charge       = 0
  Multiplicity = 1
  Basis Set: AUG-CC-PV(6+D)Z
    Blend: AUG-CC-PV(6+D)Z

    Orbital Energies [Eh]
    ---------------------

    Doubly Occupied:

       1Ap   -20.555642     2Ap   -11.269775     3Ap    -1.355442
       4Ap    -0.926088     5Ap    -0.690503     1App   -0.620797
       6Ap    -0.592635     7Ap    -0.505084     2App   -0.452470

  @RHF Final Energy:  -115.10160998784704

   => Energetics <=

    Nuclear Repulsion Energy =             40.2957127388599616
    One-Electron Energy =                -236.8577748405393493
    Two-Electron Energy =                  81.4604521138323321
    Total Energy =                       -115.1016099878470413

  Dipole Moment: [D]
     X:     1.5011      Y:    -1.0146      Z:     0.0000     Total:     1.8118

      * MP2 total energy                      = -115.580179578353224
      * CCSD total energy                     = -115.588358552619894
      * CCSD(T) total energy                  = -115.606055876828563
*** Psi4 exiting successfully. Buy a developer a beer!
