                               Psi4 1.2a1.dev938

  ==> Input File <==

--------------------------------------------------------------------------
# Any line starting with the # character is a comment line
memory 250000 mb
molecule molecule{
0 3
N          0.0000000000        0.0000000000       -0.0692230310
H          0.0000000000        0.0000000000        0.9619483577
}

set {
  reference uhf
  basis aug-cc-pv(t+d)z
  scf_type OUT_OF_CORE
  freeze_core true
}

energy('ccsd')
--------------------------------------------------------------------------

    Molecular point group: c2v

    Geometry (in Angstrom), charge = 0, multiplicity = 3:

       Center              X                  Y                   Z               Mass
    ------------   -----------------  -----------------  -----------------  -----------------
           N          0.000000000000     0.000000000000    -0.069232384772    14.003074004780
           H          0.000000000000     0.000000000000     0.961939003928     1.007825032070

  Charge       = 0
  Multiplicity = 3
  Basis Set: AUG-CC-PV(T+D)Z
    Blend: AUG-CC-PV(T+D)Z

    Orbital Energies (a.u.)
    -----------------------

    Alpha Occupied:

       1A1   -15.639809     2A1    -1.175045     3A1    -0.587758
       1B1    -0.546798     1B2    -0.546798

    Alpha Virtual:

       4A1     0.029427     2B1     0.125938     2B2     0.125938
       5A1     0.126343     6A1     0.161373     7A1     0.238762
       3B1     0.263130     3B2     0.263130     8A1     0.414484
       9A1     0.449555     1A2     0.449555    10A1     0.504762
       4B2     0.556084     4B1     0.556084     5B1     0.746639
       5B2     0.746639    11A1     0.768326    12A1     0.797293
      13A1     0.911771     2A2     0.911771     6B1     0.946334
       6B2     0.946334    14A1     0.993106    15A1     1.311737
       7B1     1.325448     7B2     1.325448     8B1     1.483160
       8B2     1.483160     3A2     1.505729    16A1     1.505729
      17A1     1.683540     9B1     1.709048     9B2     1.709048
       4A2     1.758303    18A1     1.758303    19A1     2.088025
      10B1     2.185939    10B2     2.185939    20A1     2.195454
      21A1     3.213336    11B1     3.436438    11B2     3.436438
      22A1     3.897641     5A2     3.897641    23A1     3.980634
      12B1     4.064097    12B2     4.064097    24A1     4.559006
      13B1     4.712486    13B2     4.712486    14B2     4.838197
      14B1     4.838197    25A1     4.911607    26A1     5.003048
       6A2     5.003048     7A2     5.099906    27A1     5.099906
      15B1     5.269053    15B2     5.269053    16B1     5.944922
      16B2     5.944922    28A1     6.057247    29A1     6.315167
      30A1    11.859815

    Beta Occupied:

       1A1   -15.578967     2A1    -0.924044     3A1    -0.508970

    Beta Virtual:

       4A1     0.031716     1B1     0.071817     1B2     0.071817
       5A1     0.129562     6A1     0.172539     2B2     0.195822
       2B1     0.195822     7A1     0.245456     3B1     0.289894
       3B2     0.289894     8A1     0.434741     1A2     0.479010
       9A1     0.479010    10A1     0.517552     4B1     0.576048
       4B2     0.576048    11A1     0.780512    12A1     0.820452
       5B2     0.852338     5B1     0.852338     2A2     0.919108
      13A1     0.919108     6B1     0.969068     6B2     0.969068
      14A1     1.014712    15A1     1.347554     7B1     1.368932
       7B2     1.368932     8B2     1.518156     8B1     1.518156
      16A1     1.630679     3A2     1.630679    17A1     1.702589
       9B1     1.730150     9B2     1.730150     4A2     1.785977
      18A1     1.785977    19A1     2.125097    20A1     2.230831
      10B2     2.240774    10B1     2.240774    21A1     3.221796
      11B2     3.555781    11B1     3.555781    22A1     3.907052
       5A2     3.907052    23A1     4.005713    12B1     4.079078
      12B2     4.079078    24A1     4.597907    13B1     4.731597
      13B2     4.731597    14B2     4.932932    14B1     4.932932
      25A1     4.956973    26A1     5.158553     6A2     5.158553
      27A1     5.162883     7A2     5.162883    15B2     5.345642
      15B1     5.345642    16B2     5.986014    16B1     5.986014
      28A1     6.080812    29A1     6.344591    30A1    11.906509

    Final Occupation by Irrep:
             A1    A2    B1    B2
    DOCC [     3,    0,    0,    0 ]
    SOCC [     0,    0,    1,    1 ]

  Energy converged.

  @UHF Final Energy:   -54.98265531289715

   => Energetics <=

    Nuclear Repulsion Energy =              3.5922645844547176
    One-Electron Energy =                 -81.6416506320954056
    Two-Electron Energy =                  23.0667307347435404
    PCM Polarization Energy =               0.0000000000000000
    Total Energy =                        -54.9826553128971511

    Alert: EFP and PCM quantities not currently incorporated into SCF psivars.
  UHF NO Occupations:
  HONO-2 :    3 A1 1.9939049
  HONO-1 :    1 B2 1.0000000
  HONO-0 :    1 B1 1.0000000
  LUNO+0 :    4 A1 0.0060951
  LUNO+1 :    5 A1 0.0021175
  LUNO+2 :    6 A1 0.0000027
  LUNO+3 :    7 A1 0.0000000

Properties will be evaluated at   0.000000,   0.000000,   0.000000 Bohr

Properties computed using the SCF density matrix

  Nuclear Dipole Moment: (a.u.)
     X:     0.0000      Y:     0.0000      Z:     0.9020

  Electronic Dipole Moment: (a.u.)
     X:     0.0000      Y:     0.0000      Z:    -0.2573

  Dipole Moment: (a.u.)
     X:     0.0000      Y:     0.0000      Z:     0.6446     Total:     0.6446

  Dipole Moment: (Debye)
     X:     0.0000      Y:     0.0000      Z:     1.6385     Total:     1.6385

*** tstop() called on cqc05 at Thu Aug 20 20:02:10 2020
Module time:
	user time   =       1.13 seconds =       0.02 minutes
	system time =       0.05 seconds =       0.00 minutes
	total time  =          0 seconds =       0.00 minutes
Total time:
	user time   =       1.13 seconds =       0.02 minutes
	system time =       0.05 seconds =       0.00 minutes
	total time  =          0 seconds =       0.00 minutes

*** tstart() called on cqc05
*** at Thu Aug 20 20:02:10 2020

	Wfn Parameters:
	--------------------
	Wavefunction         = CCSD
	Number of irreps     = 4
	Number of MOs        = 69
	Number of active MOs = 68
	AO-Basis             = NONE
	Semicanonical        = false
	Reference            = UHF
	Print Level          = 1

	IRREP	# MOs	# FZDC	# DOCC	# SOCC	# VIRT	# FZVR
	-----	-----	------	------	------	------	------
	 A1	   30	    1	    2	    0	    27	    0
	 A2	   7	    0	    0	    0	    7	    0
	 B1	   16	    0	    0	    1	    15	    0
	 B2	   16	    0	    0	    1	    15	    0
	Transforming integrals...
	IWL integrals will be deleted.
	(OO|OO)...
	Presorting SO-basis two-electron integrals.
	Sorting File: SO Ints (nn|nn) nbuckets = 1
	Transforming the one-electron integrals and constructing Fock matrices
	Starting AA/AB first half-transformation.
	Sorting AA/AB half-transformed integrals.
	Starting BB first half-transformation.
	Sorting BB half-transformed integrals.
	First half integral transformation complete.
	Starting AA second half-transformation.
	Starting AB second half-transformation.
	Starting BB second half-transformation.
	Two-electron integral transformation complete.
	(OO|OV)...
	Starting AA second half-transformation.
	Starting AB second half-transformation.
	Starting BB second half-transformation.
	Two-electron integral transformation complete.
	(OO|VV)...
	Starting AA second half-transformation.
	Starting AB second half-transformation.
	Starting BB second half-transformation.
	Two-electron integral transformation complete.
	(OV|OO)...
	Starting AA/AB first half-transformation.
	Sorting AA/AB half-transformed integrals.
	Starting BB first half-transformation.
	Sorting BB half-transformed integrals.
	First half integral transformation complete.
	Starting AA second half-transformation.
	Starting AB second half-transformation.
	Starting BB second half-transformation.
	Two-electron integral transformation complete.
	(OV|OV)...
	Starting AA second half-transformation.
	Starting AB second half-transformation.
	Starting BB second half-transformation.
	Two-electron integral transformation complete.
	(OV|VV)...
	Starting AA second half-transformation.
	Starting AB second half-transformation.
	Starting BB second half-transformation.
	Two-electron integral transformation complete.
	(VV|OO)...
	Starting AA/AB first half-transformation.
	Sorting AA/AB half-transformed integrals.
	Starting BB first half-transformation.
	Sorting BB half-transformed integrals.
	First half integral transformation complete.
	Starting AA second half-transformation.
	Starting AB second half-transformation.
	Starting BB second half-transformation.
	Two-electron integral transformation complete.
	(VV|OV)...
	Starting AA second half-transformation.
	Starting AB second half-transformation.
	Starting BB second half-transformation.
	Two-electron integral transformation complete.
	(VV|VV)...
	Starting AA second half-transformation.
	Starting AB second half-transformation.
	Starting BB second half-transformation.
	Two-electron integral transformation complete.
	Frozen core energy     =    -45.75892982141632

	Size of irrep 0 of <AB|CD> integrals:      0.339 (MW) /      2.710 (MB)
	Size of irrep 1 of <AB|CD> integrals:      0.171 (MW) /      1.371 (MB)
	Size of irrep 2 of <AB|CD> integrals:      0.260 (MW) /      2.081 (MB)
	Size of irrep 3 of <AB|CD> integrals:      0.260 (MW) /      2.081 (MB)
	Total:                                     1.030 (MW) /      8.243 (MB)

	Size of irrep 0 of <ab|cd> integrals:      0.375 (MW) /      2.996 (MB)
	Size of irrep 1 of <ab|cd> integrals:      0.198 (MW) /      1.584 (MB)
	Size of irrep 2 of <ab|cd> integrals:      0.296 (MW) /      2.367 (MB)
	Size of irrep 3 of <ab|cd> integrals:      0.296 (MW) /      2.367 (MB)
	Total:                                     1.164 (MW) /      9.316 (MB)

	Size of irrep 0 of <Ab|Cd> integrals:      1.583 (MW) /     12.661 (MB)
	Size of irrep 1 of <Ab|Cd> integrals:      0.736 (MW) /      5.889 (MB)
	Size of irrep 2 of <Ab|Cd> integrals:      1.111 (MW) /      8.887 (MB)
	Size of irrep 3 of <Ab|Cd> integrals:      1.111 (MW) /      8.887 (MB)
	Total:                                     4.541 (MW) /     36.324 (MB)

	Size of irrep 0 of <IA|BC> integrals:      0.103 (MW) /      0.825 (MB)
	Size of irrep 1 of <IA|BC> integrals:      0.036 (MW) /      0.291 (MB)
	Size of irrep 2 of <IA|BC> integrals:      0.065 (MW) /      0.522 (MB)
	Size of irrep 3 of <IA|BC> integrals:      0.065 (MW) /      0.522 (MB)
	Total:                                     0.270 (MW) /      2.161 (MB)

	Size of irrep 0 of <ia|bc> integrals:      0.070 (MW) /      0.557 (MB)
	Size of irrep 1 of <ia|bc> integrals:      0.012 (MW) /      0.100 (MB)
	Size of irrep 2 of <ia|bc> integrals:      0.035 (MW) /      0.279 (MB)
	Size of irrep 3 of <ia|bc> integrals:      0.035 (MW) /      0.279 (MB)
	Total:                                     0.152 (MW) /      1.214 (MB)

	Size of irrep 0 of <Ia|Bc> integrals:      0.108 (MW) /      0.866 (MB)
	Size of irrep 1 of <Ia|Bc> integrals:      0.039 (MW) /      0.316 (MB)
	Size of irrep 2 of <Ia|Bc> integrals:      0.070 (MW) /      0.557 (MB)
	Size of irrep 3 of <Ia|Bc> integrals:      0.070 (MW) /      0.557 (MB)
	Total:                                     0.287 (MW) /      2.294 (MB)

	Size of irrep 0 of <iA|bC> integrals:      0.068 (MW) /      0.543 (MB)
	Size of irrep 1 of <iA|bC> integrals:      0.012 (MW) /      0.096 (MB)
	Size of irrep 2 of <iA|bC> integrals:      0.032 (MW) /      0.253 (MB)
	Size of irrep 3 of <iA|bC> integrals:      0.032 (MW) /      0.253 (MB)
	Total:                                     0.143 (MW) /      1.145 (MB)

	Size of irrep 0 of tIjAb amplitudes:       0.005 (MW) /      0.040 (MB)
	Size of irrep 1 of tIjAb amplitudes:       0.000 (MW) /      0.000 (MB)
	Size of irrep 2 of tIjAb amplitudes:       0.002 (MW) /      0.017 (MB)
	Size of irrep 3 of tIjAb amplitudes:       0.002 (MW) /      0.017 (MB)
	Total:                                     0.009 (MW) /      0.074 (MB)

	Nuclear Rep. energy          =      3.59226458445472
	SCF energy                   =    -54.98265531289715
	One-electron energy          =    -21.34256652832361
	Two-electron (AA) energy     =      3.21337754379677
	Two-electron (BB) energy     =      0.44815867099275
	Two-electron (AB) energy     =      4.86504023759840
	Two-electron energy          =      8.52657645238792
	Reference energy             =    -54.98265531289729

*** tstop() called on cqc05 at Thu Aug 20 20:02:11 2020
Module time:
	user time   =       0.46 seconds =       0.01 minutes
	system time =       0.26 seconds =       0.00 minutes
	total time  =          1 seconds =       0.02 minutes
Total time:
	user time   =       1.59 seconds =       0.03 minutes
	system time =       0.31 seconds =       0.01 minutes
	total time  =          1 seconds =       0.02 minutes

*** tstart() called on cqc05
*** at Thu Aug 20 20:02:11 2020

            **************************
            *                        *
            *        CCENERGY        *
            *                        *
            **************************

    Nuclear Rep. energy (wfn)     =    3.592264584454718
    SCF energy          (wfn)     =  -54.982655312897151
    Reference energy    (file100) =  -54.982655312897286

    Input parameters:
    -----------------
    Wave function   =     CCSD
    Reference wfn   =     UHF
    Brueckner       =     No
    Memory (Mbytes) =     250000.0
    Maxiter         =     50
    R_Convergence   =     1.0e-07
    E_Convergence   =     1.0e-06
    Restart         =     Yes
    DIIS            =     Yes
    AO Basis        =     NONE
    ABCD            =     NEW
    Cache Level     =     2
    Cache Type      =     LRU
    Print Level     =     1
    Num. of threads =     4
    # Amps to Print =     10
    Print MP2 Amps? =     No
    Analyze T2 Amps =     No
    Print Pair Ener =     No
    Local CC        =     No
    SCS-MP2         =     False
    SCSN-MP2        =     False
    SCS-CCSD        =     False

MP2 correlation energy -0.1394248301761446
                Solving CC Amplitude Equations
                ------------------------------
  Iter             Energy              RMS        T1Diag      D1Diag    New D1Diag    D2Diag
  ----     ---------------------    ---------   ----------  ----------  ----------   --------
     0        -0.139424830176145    0.000e+00    0.000000    0.000000    0.000000    0.000000
     1        -0.152954262106122    3.770e-02    0.008978    0.000000    0.000000    0.000000
     2        -0.157803624181823    1.485e-02    0.013722    0.000000    0.000000    0.000000
     3        -0.158231005867807    4.893e-03    0.015637    0.000000    0.000000    0.000000
     4        -0.158204033693804    1.809e-03    0.016026    0.000000    0.000000    0.000000
     5        -0.158218356754522    7.668e-04    0.016063    0.000000    0.000000    0.000000
     6        -0.158229140982111    3.007e-04    0.016032    0.000000    0.000000    0.000000
     7        -0.158231309592519    1.094e-04    0.016009    0.000000    0.000000    0.000000
     8        -0.158231549805177    3.623e-05    0.016008    0.000000    0.000000    0.000000
     9        -0.158231175054916    1.498e-05    0.016008    0.000000    0.000000    0.000000
    10        -0.158231232835193    6.115e-06    0.016008    0.000000    0.000000    0.000000
    11        -0.158231231600042    2.339e-06    0.016009    0.000000    0.000000    0.000000
    12        -0.158231262550300    7.716e-07    0.016009    0.000000    0.000000    0.000000
    13        -0.158231270784006    2.907e-07    0.016009    0.000000    0.000000    0.000000
    14        -0.158231272668450    1.052e-07    0.016009    0.000000    0.000000    0.000000
    15        -0.158231272639735    3.639e-08    0.016009    0.000000    0.000000    0.000000
    15        -0.158231272639735    3.639e-08    0.016009    0.000000    0.000000    0.000000

    Iterations converged.

    CCSD corr. energy   =   -0.158231272639735
    PPL corr. energy    =    0.036414481584171
    OS PPL corr. energy =    0.030710372251198
    SS PPL corr. energy =    0.005704109332973
    Largest TIA Amplitudes:
              2  34        -0.0120703831
              3  49        -0.0120703507
              2  35        -0.0092896914
              3  50        -0.0092896777
              2  37        -0.0062868196
              3  52        -0.0062868026
              0   2        -0.0059118768
              0   6         0.0050175796
              1   3        -0.0044878675
              0   7         0.0039965678

    Largest Tia Amplitudes:
              0   4        -0.0103472715
              0   6        -0.0102825245
              0   3         0.0086666890
              0   7        -0.0084595166
              0  10         0.0077975059
              1   6         0.0074175855
              0   2         0.0067851142
              1   8         0.0063200692
              1   3        -0.0050720435
              0  16        -0.0048816618

    Largest TIJAB Amplitudes:
      3   2  52  37        -0.0226080611
      3   2  29  12        -0.0191590993
      2   1  37   8        -0.0188675149
      3   1  52   8        -0.0188675148
      3   2  52  34        -0.0124338374
      3   2  49  37        -0.0124338365
      3   1  52   3        -0.0121430963
      2   1  37   3        -0.0121430963
      3   2  27   5        -0.0116376399
      2   1  37   4         0.0116360280

    Largest Tijab Amplitudes:
      1   0  56  51         0.0073704110
      1   0  40  35         0.0073704110
      1   0   8   4         0.0070885194
      1   0  56  50         0.0070081379
      1   0  40  34         0.0070081378
      1   0  53  50        -0.0066721278
      1   0  37  34        -0.0066721278
      1   0  53  51        -0.0064226816
      1   0  37  35        -0.0064226816
      1   0  10   8         0.0062082839

    Largest TIjAb Amplitudes:
      1   1   8   8        -0.0372268333
      2   1  37   8        -0.0262638163
      3   1  52   8        -0.0262638162
      1   1   3   3        -0.0222085814
      1   1   6   6        -0.0221430790
      1   1   8   3        -0.0218040719
      1   1   3   8        -0.0211096707
      3   0  12  51        -0.0197117580
      3   0  29  35         0.0197117580

      * MP2 total energy                      =  -55.122080143073433
      * CCSD total energy                     =  -55.140886585537018
*** Psi4 exiting successfully. Buy a developer a beer!
