                               Psi4 1.2a1.dev938

  ==> Input File <==

--------------------------------------------------------------------------
# Any line starting with the # character is a comment line
memory 250000 mb
molecule molecule{
0 3
N          0.0000000000        0.0000000000       -0.0692230310
H          0.0000000000        0.0000000000        0.9619483577
}

set {
  reference uhf
  basis aug-cc-pv(6+d)z
  scf_type OUT_OF_CORE
  freeze_core true
}

energy('ccsd')
--------------------------------------------------------------------------

    Molecular point group: c2v

    Geometry (in Angstrom), charge = 0, multiplicity = 3:

       Center              X                  Y                   Z               Mass
    ------------   -----------------  -----------------  -----------------  -----------------
           N          0.000000000000     0.000000000000    -0.069232384772    14.003074004780
           H          0.000000000000     0.000000000000     0.961939003928     1.007825032070

  Charge       = 0
  Multiplicity = 3
  Basis Set: AUG-CC-PV(6+D)Z
    Blend: AUG-CC-PV(6+D)Z

    Orbital Energies (a.u.)
    -----------------------

    Alpha Occupied:

       1A1   -15.637770     2A1    -1.174401     3A1    -0.587703
       1B1    -0.547052     1B2    -0.547052

    Alpha Virtual:

       4A1     0.020634     5A1     0.069785     2B1     0.071172
       2B2     0.071172     6A1     0.108038     7A1     0.142880
       3B1     0.155054     3B2     0.155054     8A1     0.251485
       9A1     0.259092     1A2     0.259092    10A1     0.294956
       4B1     0.307292     4B2     0.307292    11A1     0.330666
       5B1     0.365789     5B2     0.365789    12A1     0.380195
       6B1     0.423556     6B2     0.423556    13A1     0.425765
       2A2     0.425765    14A1     0.562961     7B2     0.611176
       7B1     0.611176    15A1     0.648364     8B1     0.679981
       8B2     0.679981    16A1     0.684115    17A1     0.723997
       3A2     0.723997    18A1     0.754688     9B2     0.803479
       9B1     0.803479    19A1     0.823606     4A2     0.823606
      10B1     0.946133    10B2     0.946133    20A1     0.947527
      11B1     1.010146    11B2     1.010146    12B2     1.064900
      12B1     1.064900     5A2     1.103473    21A1     1.103473
      22A1     1.135299    23A1     1.268104    13B1     1.278163
      13B2     1.278163    24A1     1.316552    25A1     1.629459
       6A2     1.629459    26A1     1.671728     7A2     1.671728
      27A1     1.718233    14B1     1.743848    14B2     1.743848
      15B1     1.775340    15B2     1.775340    28A1     1.802739
       8A2     1.805662    29A1     1.805662    16B1     1.828912
      16B2     1.828912    30A1     1.869082    17B1     1.898249
      17B2     1.898249    18B1     1.943850    18B2     1.943850
      31A1     1.950231     9A2     1.950231    32A1     2.271861
      10A2     2.271861    33A1     2.292669    19B1     2.372579
      19B2     2.372579    34A1     2.395889    11A2     2.401406
      35A1     2.401406    20B1     2.405037    20B2     2.405037
      21B1     2.478210    21B2     2.478210    36A1     2.514512
      37A1     2.554792    12A2     2.554792    22B1     2.558502
      22B2     2.558502    38A1     2.577138    39A1     3.154264
      23B1     3.265212    23B2     3.265212    24B2     3.438422
      24B1     3.438422    25B2     3.445312    25B1     3.445312
      13A2     3.759156    40A1     3.759156    41A1     3.759422
      14A2     3.759422    42A1     3.803725    26B1     3.934276
      26B2     3.934276    43A1     3.952989    44A1     3.987525
      15A2     3.987525    45A1     4.139750    27B1     4.196675
      27B2     4.196675    28B1     4.241213    28B2     4.241213
      16A2     4.297210    46A1     4.297210    29B1     4.326055
      29B2     4.326055    30B1     4.405964    30B2     4.405964
      17A2     4.437652    47A1     4.437652    31B2     4.488493
      31B1     4.488493    18A2     4.572671    48A1     4.572671
      32B1     4.576169    32B2     4.576169    49A1     4.576337
      50A1     4.722014    19A2     4.866187    51A1     4.866187
      33B1     4.946641    33B2     4.946641    52A1     4.980178
      34B1     4.985242    34B2     4.985242    20A2     5.096534
      53A1     5.096534    35B2     5.159168    35B1     5.159168
      21A2     5.265239    54A1     5.265239    55A1     5.333270
      36B1     5.584618    36B2     5.584618    56A1     5.795933
      57A1     6.097673    37B1     6.165581    37B2     6.165581
      58A1     6.533947    22A2     6.533947    38B1     6.729115
      38B2     6.729116    59A1     6.956124    60A1     7.060210
      23A2     7.060210    61A1     7.208555    24A2     7.208555
      39B1     7.454715    39B2     7.454715    40B2     7.469874
      40B1     7.469874    41B2     7.802727    41B1     7.802727
      62A1     7.998084    63A1     8.163719    25A2     8.163719
      42B1     8.309084    42B2     8.309084    43B1     8.376022
      43B2     8.376022    44B2     8.469436    44B1     8.469436
      64A1     8.526745    26A2     8.527093    65A1     8.527093
      66A1     8.543442    27A2     8.543442    45B1     8.677129
      45B2     8.677129    28A2     8.778009    67A1     8.778009
      68A1     8.903913    69A1     9.220577    46B1     9.302864
      46B2     9.302864    70A1     9.360241    29A2     9.360241
      47B1     9.738159    47B2     9.738159    71A1     9.738758
      30A2     9.906305    72A1     9.906305    73A1    10.034708
      48B2    10.048982    48B1    10.048982    49B2    10.070664
      49B1    10.070664    31A2    10.240207    74A1    10.240207
      75A1    10.513970    32A2    10.513970    50B2    10.563003
      50B1    10.563003    51B2    10.687326    51B1    10.687326
      76A1    10.978984    33A2    10.978984    52B1    11.269554
      52B2    11.269554    77A1    11.395005    53B2    11.763173
      53B1    11.763173    78A1    11.890230    34A2    11.890230
      79A1    11.911191    80A1    12.018693    54B2    12.785369
      54B1    12.785369    81A1    13.400422    35A2    13.400422
      55B2    13.802025    55B1    13.802025    82A1    14.008613
      56B2    15.870456    56B1    15.870456    83A1    16.851319
      57B2    17.022274    57B1    17.022274    36A2    17.096917
      84A1    17.096917    58B2    17.293448    58B1    17.293448
      37A2    17.303738    85A1    17.303738    59B1    17.618690
      59B2    17.618690    86A1    17.673962    38A2    17.673962
      87A1    17.957421    60B2    18.040974    60B1    18.040974
      88A1    18.422888    39A2    18.422888    89A1    18.465825
      61B2    19.283059    61B1    19.283059    90A1    19.422646
      62B2    19.424148    62B1    19.424148    91A1    19.499381
      40A2    19.499381    63B1    19.920255    63B2    19.920255
      64B1    20.224073    64B2    20.224073    41A2    20.326908
      92A1    20.326908    42A2    20.533077    93A1    20.533077
      65B2    20.587355    65B1    20.587355    94A1    20.824241
      66B2    20.898003    66B1    20.898003    43A2    21.096864
      95A1    21.096864    67B2    21.142102    67B1    21.142102
      96A1    21.804410    68B1    21.880721    68B2    21.880721
      44A2    21.922264    97A1    21.922264    69B2    22.499866
      69B1    22.499866    98A1    22.832069    45A2    22.832069
      99A1    22.876181    46A2    23.793384   100A1    23.793384
     101A1    23.795292    70B2    23.905987    70B1    23.905987
      47A2    23.945758   102A1    23.945758    71B2    24.157982
      71B1    24.157982   103A1    24.174785    72B2    24.513229
      72B1    24.513229    73B2    24.809223    73B1    24.809223
     104A1    24.921881    48A2    24.921881   105A1    25.971838
     106A1    26.548242    49A2    26.548242    74B2    26.945649
      74B1    26.945649   107A1    27.419439    75B2    28.553209
      75B1    28.553209    50A2    28.854684   108A1    28.854684
     109A1    29.551479    76B2    31.048287    76B1    31.048287
     110A1    33.253158    77B2    36.966522    77B1    36.966522
     111A1    40.145283   112A1    82.007360

    Beta Occupied:

       1A1   -15.576793     2A1    -0.923317     3A1    -0.508999

    Beta Virtual:

       4A1     0.022064     1B1     0.053444     1B2     0.053444
       5A1     0.070805     6A1     0.114436     2B2     0.125222
       2B1     0.125222     7A1     0.144552     3B2     0.170620
       3B1     0.170620     8A1     0.259562     9A1     0.266042
       1A2     0.266042    10A1     0.297564     4B1     0.340834
       4B2     0.340834    11A1     0.342379    12A1     0.387430
       5B2     0.411001     5B1     0.411001     2A2     0.427989
      13A1     0.427989     6B1     0.429734     6B2     0.429734
      14A1     0.577449     7B2     0.616210     7B1     0.616210
      15A1     0.664889     8B1     0.681303     8B2     0.681303
      16A1     0.690998     3A2     0.731713    17A1     0.731713
      18A1     0.764340     9B1     0.827492     9B2     0.827492
      19A1     0.875864     4A2     0.875864    20A1     0.961235
      10B1     1.013913    10B2     1.013913    11B2     1.039423
      11B1     1.039423    12B2     1.067357    12B1     1.067357
       5A2     1.105208    21A1     1.105208    22A1     1.150352
      23A1     1.274571    13B1     1.289635    13B2     1.289635
      24A1     1.337056     6A2     1.639340    25A1     1.639340
      26A1     1.687295     7A2     1.687295    27A1     1.734590
      14B1     1.763892    14B2     1.763892    15B2     1.796684
      15B1     1.796684    28A1     1.806997     8A2     1.810869
      29A1     1.810869    16B1     1.838090    16B2     1.838090
      30A1     1.888384    17B1     1.916821    17B2     1.916821
      18B1     1.969425    18B2     1.969425    31A1     2.050386
       9A2     2.050386    32A1     2.274642    10A2     2.274642
      33A1     2.313143    19B2     2.405859    19B1     2.405859
      11A2     2.412115    34A1     2.412115    35A1     2.418274
      20B2     2.427935    20B1     2.427935    21B1     2.491313
      21B2     2.491313    36A1     2.520823    37A1     2.570101
      12A2     2.570101    38A1     2.596944    22B1     2.597746
      22B2     2.597746    39A1     3.173524    23B2     3.302177
      23B1     3.302177    24B1     3.451590    24B2     3.451590
      25B1     3.454385    25B2     3.454385    13A2     3.769565
      40A1     3.769565    41A1     3.778137    14A2     3.778137
      42A1     3.822192    26B1     3.944901    26B2     3.944901
      43A1     3.962565    44A1     4.007893    15A2     4.007893
      45A1     4.151497    27B1     4.248863    27B2     4.248863
      28B1     4.259393    28B2     4.259393    16A2     4.329457
      46A1     4.329457    29B1     4.353550    29B2     4.353550
      30B1     4.418671    30B2     4.418671    47A1     4.480406
      17A2     4.480406    31B2     4.491805    31B1     4.491805
      48A1     4.588661    32B2     4.599533    32B1     4.599533
      49A1     4.604741    18A2     4.604741    50A1     4.746893
      19A2     4.901354    51A1     4.901354    33B2     4.959951
      33B1     4.959951    34B1     4.992566    34B2     4.992566
      52A1     4.992632    20A2     5.101492    53A1     5.101492
      35B1     5.163409    35B2     5.163409    54A1     5.296065
      21A2     5.296065    55A1     5.371949    36B2     5.628012
      36B1     5.628012    56A1     5.813426    57A1     6.111569
      37B2     6.204704    37B1     6.204704    58A1     6.562740
      22A2     6.562740    38B2     6.767594    38B1     6.767594
      59A1     6.971700    60A1     7.069010    23A2     7.069010
      24A2     7.226982    61A1     7.226982    39B2     7.478924
      39B1     7.478924    40B2     7.485177    40B1     7.485177
      41B2     7.817301    41B1     7.817301    62A1     8.017911
      63A1     8.179027    25A2     8.179027    42B1     8.320745
      42B2     8.320745    43B1     8.408215    43B2     8.408215
      44B1     8.481393    44B2     8.481393    64A1     8.533119
      26A2     8.546203    65A1     8.546203    66A1     8.554116
      27A2     8.554116    45B2     8.690846    45B1     8.690846
      28A2     8.792733    67A1     8.792733    68A1     8.919622
      69A1     9.238812    46B2     9.373384    46B1     9.373384
      70A1     9.382765    29A2     9.382765    71A1     9.751284
      47B2     9.754353    47B1     9.754353    72A1     9.922935
      30A2     9.922935    73A1    10.057481    48B2    10.064482
      48B1    10.064482    49B2    10.086064    49B1    10.086064
      31A2    10.294642    74A1    10.294642    75A1    10.528058
      32A2    10.528058    50B2    10.591080    50B1    10.591080
      51B2    10.702041    51B1    10.702041    76A1    11.032937
      33A2    11.032937    52B2    11.281894    52B1    11.281894
      77A1    11.410978    53B2    11.803975    53B1    11.803975
      78A1    11.937248    34A2    11.937248    79A1    11.939048
      80A1    12.032081    54B2    12.796452    54B1    12.796452
      81A1    13.423469    35A2    13.423469    55B2    13.822170
      55B1    13.822170    82A1    14.024698    56B2    15.888621
      56B1    15.888621    83A1    16.869730    57B1    17.037956
      57B2    17.037956    84A1    17.111216    36A2    17.111216
      58B2    17.309788    58B1    17.309788    37A2    17.336163
      85A1    17.336163    59B1    17.630491    59B2    17.630491
      86A1    17.688948    38A2    17.688948    87A1    17.976023
      60B2    18.057254    60B1    18.057254    88A1    18.433612
      39A2    18.433612    89A1    18.478084    61B2    19.319288
      61B1    19.319288    90A1    19.438723    62B2    19.442945
      62B1    19.442945    91A1    19.514866    40A2    19.514866
      63B1    19.931911    63B2    19.931911    64B1    20.268813
      64B2    20.268813    41A2    20.358823    92A1    20.358823
      42A2    20.537939    93A1    20.537939    65B2    20.613169
      65B1    20.613169    94A1    20.840660    66B2    20.949902
      66B1    20.949902    95A1    21.136044    43A2    21.136044
      67B2    21.152318    67B1    21.152318    96A1    21.821080
      68B1    21.891275    68B2    21.891275    44A2    21.923985
      97A1    21.923985    69B2    22.518473    69B1    22.518473
      98A1    22.835319    45A2    22.835319    99A1    22.885626
     100A1    23.805571   101A1    23.814438    46A2    23.814438
      70B2    23.927103    70B1    23.927103    47A2    23.998036
     102A1    23.998036    71B2    24.164148    71B1    24.164148
     103A1    24.191040    72B2    24.531469    72B1    24.531469
      73B2    24.824580    73B1    24.824580   104A1    24.934000
      48A2    24.934000   105A1    25.975336   106A1    26.567721
      49A2    26.567721    74B2    26.957112    74B1    26.957112
     107A1    27.431592    75B2    28.572070    75B1    28.572070
     108A1    28.896637    50A2    28.896637   109A1    29.559846
      76B2    31.065529    76B1    31.065529   110A1    33.266604
      77B2    36.966245    77B1    36.966245   111A1    40.144580
     112A1    82.022058

    Final Occupation by Irrep:
             A1    A2    B1    B2
    DOCC [     3,    0,    0,    0 ]
    SOCC [     0,    0,    1,    1 ]

  Energy converged.

  @UHF Final Energy:   -54.98647006636298

   => Energetics <=

    Nuclear Repulsion Energy =              3.5922645844547176
    One-Electron Energy =                 -81.6543838551907726
    Two-Electron Energy =                  23.0756492043730681
    PCM Polarization Energy =               0.0000000000000000
    Total Energy =                        -54.9864700663629833

    Alert: EFP and PCM quantities not currently incorporated into SCF psivars.
  UHF NO Occupations:
  HONO-2 :    3 A1 1.9938460
  HONO-1 :    1 B2 1.0000000
  HONO-0 :    1 B1 1.0000000
  LUNO+0 :    4 A1 0.0061540
  LUNO+1 :    5 A1 0.0021229
  LUNO+2 :    6 A1 0.0000031
  LUNO+3 :    7 A1 0.0000000

Properties will be evaluated at   0.000000,   0.000000,   0.000000 Bohr

Properties computed using the SCF density matrix

  Nuclear Dipole Moment: (a.u.)
     X:     0.0000      Y:     0.0000      Z:     0.9020

  Electronic Dipole Moment: (a.u.)
     X:     0.0000      Y:     0.0000      Z:    -0.2584

  Dipole Moment: (a.u.)
     X:     0.0000      Y:     0.0000      Z:     0.6436     Total:     0.6436

  Dipole Moment: (Debye)
     X:     0.0000      Y:     0.0000      Z:     1.6358     Total:     1.6358

*** tstop() called on cqc05 at Wed Aug 26 16:58:21 2020
Module time:
	user time   =     239.48 seconds =       3.99 minutes
	system time =      15.89 seconds =       0.26 minutes
	total time  =        332 seconds =       5.53 minutes
Total time:
	user time   =     239.48 seconds =       3.99 minutes
	system time =      15.89 seconds =       0.26 minutes
	total time  =        332 seconds =       5.53 minutes

*** tstart() called on cqc05
*** at Wed Aug 26 16:58:21 2020

	Wfn Parameters:
	--------------------
	Wavefunction         = CCSD
	Number of irreps     = 4
	Number of MOs        = 316
	Number of active MOs = 315
	AO-Basis             = NONE
	Semicanonical        = false
	Reference            = UHF
	Print Level          = 1

	IRREP	# MOs	# FZDC	# DOCC	# SOCC	# VIRT	# FZVR
	-----	-----	------	------	------	------	------
	 A1	   112	    1	    2	    0	    109	    0
	 A2	   50	    0	    0	    0	    50	    0
	 B1	   77	    0	    0	    1	    76	    0
	 B2	   77	    0	    0	    1	    76	    0
	Transforming integrals...
	IWL integrals will be deleted.
	(OO|OO)...
	Presorting SO-basis two-electron integrals.
	Sorting File: SO Ints (nn|nn) nbuckets = 1
	Transforming the one-electron integrals and constructing Fock matrices
	Starting AA/AB first half-transformation.
	Sorting AA/AB half-transformed integrals.
	Starting BB first half-transformation.
	Sorting BB half-transformed integrals.
	First half integral transformation complete.
	Starting AA second half-transformation.
	Starting AB second half-transformation.
	Starting BB second half-transformation.
	Two-electron integral transformation complete.
	(OO|OV)...
	Starting AA second half-transformation.
	Starting AB second half-transformation.
	Starting BB second half-transformation.
	Two-electron integral transformation complete.
	(OO|VV)...
	Starting AA second half-transformation.
	Starting AB second half-transformation.
	Starting BB second half-transformation.
	Two-electron integral transformation complete.
	(OV|OO)...
	Starting AA/AB first half-transformation.
	Sorting AA/AB half-transformed integrals.
	Starting BB first half-transformation.
	Sorting BB half-transformed integrals.
	First half integral transformation complete.
	Starting AA second half-transformation.
	Starting AB second half-transformation.
	Starting BB second half-transformation.
	Two-electron integral transformation complete.
	(OV|OV)...
	Starting AA second half-transformation.
	Starting AB second half-transformation.
	Starting BB second half-transformation.
	Two-electron integral transformation complete.
	(OV|VV)...
	Starting AA second half-transformation.
	Starting AB second half-transformation.
	Starting BB second half-transformation.
	Two-electron integral transformation complete.
	(VV|OO)...
	Starting AA/AB first half-transformation.
	Sorting AA/AB half-transformed integrals.
	Starting BB first half-transformation.
	Sorting BB half-transformed integrals.
	First half integral transformation complete.
	Starting AA second half-transformation.
	Starting AB second half-transformation.
	Starting BB second half-transformation.
	Two-electron integral transformation complete.
	(VV|OV)...
	Starting AA second half-transformation.
	Starting AB second half-transformation.
	Starting BB second half-transformation.
	Two-electron integral transformation complete.
	(VV|VV)...
	Starting AA second half-transformation.
	Starting AB second half-transformation.
	Starting BB second half-transformation.
	Two-electron integral transformation complete.
	Frozen core energy     =    -45.76000303914324

	Size of irrep 0 of <AB|CD> integrals:    164.122 (MW) /   1312.974 (MB)
	Size of irrep 1 of <AB|CD> integrals:    126.023 (MW) /   1008.185 (MB)
	Size of irrep 2 of <AB|CD> integrals:    146.023 (MW) /   1168.184 (MB)
	Size of irrep 3 of <AB|CD> integrals:    146.023 (MW) /   1168.184 (MB)
	Total:                                   582.191 (MW) /   4657.527 (MB)

	Size of irrep 0 of <ab|cd> integrals:    168.039 (MW) /   1344.315 (MB)
	Size of irrep 1 of <ab|cd> integrals:    129.482 (MW) /   1035.853 (MB)
	Size of irrep 2 of <ab|cd> integrals:    149.891 (MW) /   1199.128 (MB)
	Size of irrep 3 of <ab|cd> integrals:    149.891 (MW) /   1199.128 (MB)
	Total:                                   597.303 (MW) /   4778.425 (MB)

	Size of irrep 0 of <Ab|Cd> integrals:    680.427 (MW) /   5443.418 (MB)
	Size of irrep 1 of <Ab|Cd> integrals:    510.941 (MW) /   4087.527 (MB)
	Size of irrep 2 of <Ab|Cd> integrals:    591.803 (MW) /   4734.423 (MB)
	Size of irrep 3 of <Ab|Cd> integrals:    591.803 (MW) /   4734.423 (MB)
	Total:                                  2374.974 (MW) /  18999.791 (MB)

	Size of irrep 0 of <IA|BC> integrals:      9.595 (MW) /     76.762 (MB)
	Size of irrep 1 of <IA|BC> integrals:      5.658 (MW) /     45.263 (MB)
	Size of irrep 2 of <IA|BC> integrals:      7.516 (MW) /     60.130 (MB)
	Size of irrep 3 of <IA|BC> integrals:      7.516 (MW) /     60.130 (MB)
	Total:                                    30.286 (MW) /    242.285 (MB)

	Size of irrep 0 of <ia|bc> integrals:      5.720 (MW) /     45.761 (MB)
	Size of irrep 1 of <ia|bc> integrals:      2.276 (MW) /     18.206 (MB)
	Size of irrep 2 of <ia|bc> integrals:      3.771 (MW) /     30.167 (MB)
	Size of irrep 3 of <ia|bc> integrals:      3.771 (MW) /     30.167 (MB)
	Total:                                    15.538 (MW) /    124.301 (MB)

      * MP2 total energy                      =  -55.140692747313182
      * CCSD total energy                     =  -55.155827807892699
*** Psi4 exiting successfully. Buy a developer a beer!
