                               Psi4 1.2a1.dev939

  ==> Input File <==

--------------------------------------------------------------------------
# Any line starting with the # character is a comment line

memory 32000 mb

molecule molecule {
0 1
Si         0.0000000000        0.0000000000        0.0702843410
H          0.0000000000        1.0886337008       -0.9792104977
H          0.0000000000       -1.0886337008       -0.9792104977
}

set {
  reference rhf

  basis aug-cc-pv(5+d)z
  scf_type OUT_OF_CORE
  freeze_core true
}

energy('ccsd')
--------------------------------------------------------------------------

    Molecular point group: c2v

    Geometry (in Angstrom), charge = 0, multiplicity = 1:

       Center              X                  Y                   Z               Mass
    ------------   -----------------  -----------------  -----------------  -----------------
          SI         -0.000000000000     0.000000000000     0.070531264032    27.976926532460
           H         -0.000000000000     1.088633700800    -0.978963574668     1.007825032070
           H          0.000000000000    -1.088633700800    -0.978963574668     1.007825032070

  Charge       = 0
  Multiplicity = 1
  Basis Set: AUG-CC-PV(5+D)Z
    Blend: AUG-CC-PV(5+D)Z

    Orbital Energies (a.u.)
    -----------------------

    Doubly Occupied:

       1A1   -68.798804     2A1    -6.144092     1B1    -4.247090
       1B2    -4.245682     3A1    -4.245129     4A1    -0.675555
       2B2    -0.460361     5A1    -0.338474

  @RHF Final Energy:  -290.03533055008393

   => Energetics <=

    Nuclear Repulsion Energy =             10.0417270641736227
    One-Electron Energy =                -421.8437413653374506
    Two-Electron Energy =                 121.7666837510798814
    Total Energy =                       -290.0353305500839269
      * MP2 total energy                      = -290.155852898466776
      * CCSD total energy                     = -290.179257377147451
*** Psi4 exiting successfully. Buy a developer a beer!
