                               Psi4 1.2a1.dev939

  ==> Input File <==

--------------------------------------------------------------------------
# Any line starting with the # character is a comment line

memory 32000 mb

molecule molecule {
0 1
Si         0.0000000000        0.0000000000        0.0702843410
H          0.0000000000        1.0886337008       -0.9792104977
H          0.0000000000       -1.0886337008       -0.9792104977
}

set {
  reference rhf
  basis aug-cc-pv(Q+d)z
  scf_type OUT_OF_CORE
  freeze_core true
}

energy('ccsd')
--------------------------------------------------------------------------

    Molecular point group: c2v

    Geometry (in Angstrom), charge = 0, multiplicity = 1:

       Center              X                  Y                   Z               Mass
    ------------   -----------------  -----------------  -----------------  -----------------
          SI         -0.000000000000     0.000000000000     0.070531264032    27.976926532460
           H         -0.000000000000     1.088633700800    -0.978963574668     1.007825032070
           H          0.000000000000    -1.088633700800    -0.978963574668     1.007825032070

  Charge       = 0
  Multiplicity = 1
  Basis Set: AUG-CC-PV(Q+D)Z
    Blend: AUG-CC-PV(Q+D)Z

    Orbital Energies (a.u.)
    -----------------------

    Doubly Occupied:

       1A1   -68.798047     2A1    -6.143976     1B1    -4.247423
       1B2    -4.245448     3A1    -4.244649     4A1    -0.675602
       2B2    -0.460351     5A1    -0.338402

  @RHF Final Energy:  -290.03479532586408

   => Energetics <=

    Nuclear Repulsion Energy =             10.0417270641736227
    One-Electron Energy =                -421.8452481867533379
    Two-Electron Energy =                 121.7687257967155716
    PCM Polarization Energy =               0.0000000000000000
    Total Energy =                       -290.0347953258641382
      * MP2 total energy                      = -290.152602536072209
      * CCSD total energy                     = -290.177387825391861
*** Psi4 exiting successfully. Buy a developer a beer!
