                               Psi4 1.2a1.dev939

  ==> Input File <==

--------------------------------------------------------------------------
# Any line starting with the # character is a comment line

memory 32000 mb

molecule molecule {
0 3
Si         0.0000000000        0.0000000000       -1.0836042810
Si         0.0000000000        0.0000000000        1.0836042810
}

set {
  reference rohf
  DOCC [     5,    0,    1,    1,    0,    4,    1,    1 ]
  SOCC [     0,    0,    0,    0,    0,    0,    1,    1 ]
  basis aug-cc-pv(T+d)z
  scf_type OUT_OF_CORE
  mp2_type conv
  freeze_core true
}

energy('mp2')
--------------------------------------------------------------------------

    Molecular point group: d2h

    Geometry (in Angstrom), charge = 0, multiplicity = 3:

       Center              X                  Y                   Z               Mass
    ------------   -----------------  -----------------  -----------------  -----------------
          SI          0.000000000000     0.000000000000    -1.083604281000    27.976926532460
          SI          0.000000000000     0.000000000000     1.083604281000    27.976926532460

  Charge       = 0
  Multiplicity = 3
  Basis Set: AUG-CC-PV(T+D)Z
    Blend: AUG-CC-PV(T+D)Z

    Orbital Energies (a.u.)
    -----------------------

    Doubly Occupied:

       1Ag   -68.797913     1B1u  -68.797910     2Ag    -6.144932
       2B1u   -6.144590     3Ag    -4.245884     1B3u   -4.245795
       1B2u   -4.245795     1B2g   -4.245624     1B3g   -4.245624
       3B1u   -4.244360     4Ag    -0.685840     4B1u   -0.463528
       5Ag    -0.298085

    Singly Occupied:

       2B2u   -0.160499     2B3u   -0.160499

  @ROHF Final Energy:  -577.77588286023786

   => Energetics <=

    Nuclear Repulsion Energy =             47.8582148032506680
    One-Electron Energy =                -897.0094533728365604
    Two-Electron Energy =                 271.3753557093480140
    Total Energy =                       -577.7758828602378571
*** Psi4 exiting successfully. Buy a developer a beer!
