                               Psi4 1.2a1.dev939

  ==> Input File <==

--------------------------------------------------------------------------
# Any line starting with the # character is a comment line

memory 32000 mb

molecule molecule {
0 3
Si         0.0000000000        0.0000000000       -1.0836042810
Si         0.0000000000        0.0000000000        1.0836042810
}

set {
  reference rohf
  DOCC [     5,    0,    1,    1,    0,    4,    1,    1 ]
  SOCC [     0,    0,    0,    0,    0,    0,    1,    1 ]
  basis aug-cc-pv(5+d)z
  scf_type OUT_OF_CORE
  mp2_type conv
  freeze_core true
}

energy('mp2')
--------------------------------------------------------------------------

    Molecular point group: d2h

    Geometry (in Angstrom), charge = 0, multiplicity = 3:

       Center              X                  Y                   Z               Mass
    ------------   -----------------  -----------------  -----------------  -----------------
          SI          0.000000000000     0.000000000000    -1.083604281000    27.976926532460
          SI          0.000000000000     0.000000000000     1.083604281000    27.976926532460

  Charge       = 0
  Multiplicity = 3
  Basis Set: AUG-CC-PV(5+D)Z
    Blend: AUG-CC-PV(5+D)Z

    Orbital Energies (a.u.)
    -----------------------

    Doubly Occupied:

       1Ag   -68.796872     1B1u  -68.796869     2Ag    -6.143844
       2B1u   -6.143502     3Ag    -4.244995     1B3u   -4.244813
       1B2u   -4.244813     1B3g   -4.244642     1B2g   -4.244642
       3B1u   -4.243468     4Ag    -0.685167     4B1u   -0.463048
       5Ag    -0.297957

    Singly Occupied:

       2B2u   -0.160180     2B3u   -0.160180

  @ROHF Final Energy:  -577.78026720805383

   => Energetics <=

    Nuclear Repulsion Energy =             47.8582148032506680
    One-Electron Energy =                -897.0408244627582235
    Two-Electron Energy =                 271.4023424514537055
    PCM Polarization Energy =               0.0000000000000000
    Total Energy =                       -577.7802672080538287
*** Psi4 exiting successfully. Buy a developer a beer!
