                               Psi4 1.2a1.dev939

  ==> Input File <==

--------------------------------------------------------------------------
# Any line starting with the # character is a comment line

memory 32000 mb

molecule molecule {
0 3
Si         0.0000000000        0.0000000000       -1.0836042810
Si         0.0000000000        0.0000000000        1.0836042810
}

set {
  reference rohf
  DOCC [     5,    0,    1,    1,    0,    4,    1,    1 ]
  SOCC [     0,    0,    0,    0,    0,    0,    1,    1 ]
  basis aug-cc-pv(D+d)z
  scf_type OUT_OF_CORE
  mp2_type conv
  freeze_core true
}

energy('mp2')
--------------------------------------------------------------------------

    Molecular point group: d2h

    Geometry (in Angstrom), charge = 0, multiplicity = 3:

       Center              X                  Y                   Z               Mass
    ------------   -----------------  -----------------  -----------------  -----------------
          SI          0.000000000000     0.000000000000    -1.083604281000    27.976926532460
          SI          0.000000000000     0.000000000000     1.083604281000    27.976926532460

  Charge       = 0
  Multiplicity = 3
  Basis Set: AUG-CC-PV(D+D)Z
    Blend: AUG-CC-PV(D+D)Z

    Orbital Energies (a.u.)
    -----------------------

    Doubly Occupied:

       1Ag   -68.800378     1B1u  -68.800376     2Ag    -6.147045
       2B1u   -6.146752     1B2u   -4.248278     1B3u   -4.248278
       1B3g   -4.248111     1B2g   -4.248111     3Ag    -4.247605
       3B1u   -4.246111     4Ag    -0.688421     4B1u   -0.464505
       5Ag    -0.298786

    Singly Occupied:

       2B3u   -0.161712     2B2u   -0.161712

  @ROHF Final Energy:  -577.76297873089993

   => Energetics <=

    Nuclear Repulsion Energy =             47.8582148032506680
    One-Electron Energy =                -896.9292925552491624
    Two-Electron Energy =                 271.3080990210984851
    Total Energy =                       -577.7629787308999312
*** Psi4 exiting successfully. Buy a developer a beer!
