                               Psi4 1.2a1.dev939

  ==> Input File <==

--------------------------------------------------------------------------
# Any line starting with the # character is a comment line

memory 32000 mb

molecule molecule {
0 3
Si         0.0000000000        0.0000000000       -1.0836042810
Si         0.0000000000        0.0000000000        1.0836042810
}

set {
  reference rohf
  DOCC [     5,    0,    1,    1,    0,    4,    1,    1 ]
  SOCC [     0,    0,    0,    0,    0,    0,    1,    1 ]
  basis aug-cc-pv(Q+d)z
  scf_type OUT_OF_CORE
  mp2_type conv
  freeze_core true
}

energy('mp2')
--------------------------------------------------------------------------

    Molecular point group: d2h

    Geometry (in Angstrom), charge = 0, multiplicity = 3:

       Center              X                  Y                   Z               Mass
    ------------   -----------------  -----------------  -----------------  -----------------
          SI          0.000000000000     0.000000000000    -1.083604281000    27.976926532460
          SI          0.000000000000     0.000000000000     1.083604281000    27.976926532460

  Charge       = 0
  Multiplicity = 3
  Basis Set: AUG-CC-PV(Q+D)Z
    Blend: AUG-CC-PV(Q+D)Z

    Orbital Energies (a.u.)
    -----------------------

    Doubly Occupied:

       1Ag   -68.796301     1B1u  -68.796298     2Ag    -6.143767
       2B1u   -6.143425     1B3u   -4.244939     1B2u   -4.244939
       1B3g   -4.244768     1B2g   -4.244768     3Ag    -4.244505
       3B1u   -4.242980     4Ag    -0.685246     4B1u   -0.463073
       5Ag    -0.297898

    Singly Occupied:

       2B3u   -0.160260     2B2u   -0.160260

  @ROHF Final Energy:  -577.77954003499258

   => Energetics <=

    Nuclear Repulsion Energy =             47.8582148032506680
    One-Electron Energy =                -897.0427073603477766
    Two-Electron Energy =                 271.4049525221045087
    Total Energy =                       -577.7795400349925785
*** Psi4 exiting successfully. Buy a developer a beer!
