                               Psi4 1.4a3.dev88

  ==> Input File <==

--------------------------------------------------------------------------
# Any line starting with the # character is a comment line
memory 250000 mb
molecule molecule{
0 1
N         -0.0000000000        0.0000000000        0.0674754640
H          0.9380664748        0.0000000000       -0.3125545110
H         -0.4690332374        0.8123893976       -0.3125545110
H         -0.4690332374       -0.8123893976       -0.3125545110
}

set {
  reference rhf
  basis aug-cc-pV(6+d)Z
  scf_type OUT_OF_CORE
  freeze_core true
}

energy('ccsd(t)')
--------------------------------------------------------------------------

    Molecular point group: cs

    Geometry (in Angstrom), charge = 0, multiplicity = 1:

       Center              X                  Y                   Z               Mass
    ------------   -----------------  -----------------  -----------------  -----------------
         N            0.000000000000    -0.067483502299     0.000000000000    14.003074004430
         H           -0.469033237393     0.312546472701     0.812389397611     1.007825032230
         H           -0.469033237393     0.312546472701    -0.812389397611     1.007825032230
         H            0.938066474787     0.312546472701     0.000000000000     1.007825032230

  Charge       = 0
  Multiplicity = 1
  Basis Set: AUG-CC-PV(6+D)Z
    Blend: AUG-CC-PV(6+D)Z

    Orbital Energies [Eh]
    ---------------------

    Doubly Occupied:

       1Ap   -15.539721     2Ap    -1.142047     3Ap    -0.628963
       1App   -0.628963     4Ap    -0.429582

  @RHF Final Energy:   -56.22495668068488

   => Energetics <=

    Nuclear Repulsion Energy =             11.9566989928546015
    One-Electron Energy =                 -99.6247641819084038
    Two-Electron Energy =                  31.4431085083689332
    Total Energy =                        -56.2249566806848691

  Dipole Moment: [D]
     X:    -0.0000      Y:     1.6136      Z:     0.0000     Total:     1.6136

      * MP2 total energy                      =  -56.486166299812709
      * CCSD total energy                     =  -56.492576438247845
      * CCSD(T) total energy                  =  -56.501810746196306
*** Psi4 exiting successfully. Buy a developer a beer!
