                               Psi4 1.4a3.dev88

  ==> Input File <==

--------------------------------------------------------------------------
# Any line starting with the # character is a comment line
memory 250000 mb
molecule molecule{
0 1
N         -0.0000000000        0.0000000000        0.0674754640
H          0.9380664748        0.0000000000       -0.3125545110
H         -0.4690332374        0.8123893976       -0.3125545110
H         -0.4690332374       -0.8123893976       -0.3125545110
}

set {
  reference rhf
  basis aug-cc-pV(Q+d)Z
  scf_type OUT_OF_CORE
  freeze_core true
}

energy('ccsd(t)')
--------------------------------------------------------------------------

    Molecular point group: cs

    Geometry (in Angstrom), charge = 0, multiplicity = 1:

       Center              X                  Y                   Z               Mass
    ------------   -----------------  -----------------  -----------------  -----------------
         N            0.000000000000    -0.067483502299     0.000000000000    14.003074004430
         H           -0.469033237393     0.312546472701     0.812389397611     1.007825032230
         H           -0.469033237393     0.312546472701    -0.812389397611     1.007825032230
         H            0.938066474787     0.312546472701     0.000000000000     1.007825032230

  Charge       = 0
  Multiplicity = 1
  Basis Set: AUG-CC-PV(Q+D)Z
    Blend: AUG-CC-PV(Q+D)Z

    Orbital Energies [Eh]
    ---------------------

    Doubly Occupied:

       1Ap   -15.540123     2Ap    -1.142155     1App   -0.628933
       3Ap    -0.628933     4Ap    -0.429539

  @RHF Final Energy:   -56.22397048638859

   => Energetics <=

    Nuclear Repulsion Energy =             11.9566989928546015
    One-Electron Energy =                 -99.6219739986230337
    Two-Electron Energy =                  31.4413045193798375
    Total Energy =                        -56.2239704863885947

  Dipole Moment: [D]
     X:     0.0000      Y:     1.6125      Z:     0.0000     Total:     1.6125

      * MP2 total energy                      =  -56.477766078760141
      * CCSD total energy                     =  -56.486774583059891
      * CCSD(T) total energy                  =  -56.495729564696568
*** Psi4 exiting successfully. Buy a developer a beer!
