                               Psi4 1.4a3.dev88

  ==> Input File <==

--------------------------------------------------------------------------
# Any line starting with the # character is a comment line
memory 250000 mb
molecule molecule{
0 1
N         -0.0000000000        0.0000000000        0.0674754640
H          0.9380664748        0.0000000000       -0.3125545110
H         -0.4690332374        0.8123893976       -0.3125545110
H         -0.4690332374       -0.8123893976       -0.3125545110
}

set {
  reference rhf
  basis aug-cc-pV(t+d)Z
  scf_type OUT_OF_CORE
  freeze_core true
}

energy('ccsd(t)')
--------------------------------------------------------------------------

    Molecular point group: cs

    Geometry (in Angstrom), charge = 0, multiplicity = 1:

       Center              X                  Y                   Z               Mass
    ------------   -----------------  -----------------  -----------------  -----------------
         N            0.000000000000    -0.067483502299     0.000000000000    14.003074004430
         H           -0.469033237393     0.312546472701     0.812389397611     1.007825032230
         H           -0.469033237393     0.312546472701    -0.812389397611     1.007825032230
         H            0.938066474787     0.312546472701     0.000000000000     1.007825032230

  Charge       = 0
  Multiplicity = 1
  Basis Set: AUG-CC-PV(T+D)Z
    Blend: AUG-CC-PV(T+D)Z

    Orbital Energies [Eh]
    ---------------------

    Doubly Occupied:

       1Ap   -15.541724     2Ap    -1.142446     1App   -0.628830
       3Ap    -0.628830     4Ap    -0.429333

  @RHF Final Energy:   -56.22032425224678

   => Energetics <=

    Nuclear Repulsion Energy =             11.9566989928546015
    One-Electron Energy =                 -99.6117180442250287
    Two-Electron Energy =                  31.4346947991236547
    Total Energy =                        -56.2203242522467761

  Dipole Moment: [D]
     X:    -0.0000      Y:     1.6120      Z:     0.0000     Total:     1.6120

      * MP2 total energy                      =  -56.460540923515040
      * CCSD total energy                     =  -56.472209482128065
      * CCSD(T) total energy                  =  -56.480543357292760
*** Psi4 exiting successfully. Buy a developer a beer!
