                               Psi4 1.4a3.dev88

  ==> Input File <==

--------------------------------------------------------------------------
# Any line starting with the # character is a comment line
memory 250000 mb
molecule molecule{
-1 2
O          0.0000000000        0.0000000000        0.0000000000
}

set {
  reference uhf
  basis aug-cc-pV(6+d)Z
  scf_type OUT_OF_CORE
  freeze_core true
}

energy('ccsd(t)')
--------------------------------------------------------------------------

    Molecular point group: d2h
    Geometry (in Angstrom), charge = -1, multiplicity = 2:

       Center              X                  Y                   Z               Mass
    ------------   -----------------  -----------------  -----------------  -----------------
         O            0.000000000000     0.000000000000     0.000000000000    15.994914619570

  Charge       = -1
  Multiplicity = 2
  Basis Set: AUG-CC-PV(6+D)Z
    Blend: AUG-CC-PV(6+D)Z

    Orbital Energies [Eh]
    ---------------------

    Alpha Occupied:

       1Ag   -20.224510     2Ag    -0.910319     1B3u   -0.239135
       1B1u   -0.146350     1B2u   -0.146350

    Alpha Virtual:

       2B3u    0.233180     2B1u    0.238173     2B2u    0.238173
       3Ag     0.322268     4Ag     0.580792     1B2g    0.583405
       1B1g    0.583405     3B3u    0.590651     5Ag     0.591867
       1B3g    0.591867     3B1u    0.611762     3B2u    0.611762
       6Ag     0.880735     4B3u    1.052868     4B2u    1.054671
       4B1u    1.054671     5B3u    1.060118     1Au     1.060118
       5B2u    1.069407     5B1u    1.069407     7Ag     1.371949
       2B2g    1.379829     2B1g    1.379829     8Ag     1.405473
       2B3g    1.405473     6B3u    1.425609     6B2u    1.466745
       6B1u    1.466745     9Ag     2.350697     3B1g    2.352475
       3B2g    2.352475     3B3g    2.357840    10Ag     2.357840
       4B2g    2.366891     4B1g    2.366891     4B3g    2.379826
      11Ag     2.379826    12Ag     2.443609     7B3u    2.608448
       7B1u    2.612804     7B2u    2.612804     2Au     2.625909
       8B3u    2.625909     8B1u    2.648042     8B2u    2.648042
      13Ag     2.943078     5B2g    2.956669     5B1g    2.956669
      14Ag     2.999970     5B3g    2.999970     9B3u    3.374830
       9B1u    3.432291     9B2u    3.432291    10B3u    4.768750
      10B1u    4.770427    10B2u    4.770427     3Au     4.775470
      11B3u    4.775470    11B1u    4.783919    11B2u    4.783919
      12B3u    4.795836     4Au     4.795836    12B2u    4.811317
      12B1u    4.811317    13B3u    5.757598    13B1u    5.764538
      13B2u    5.764538    15Ag     5.784803     5Au     5.785445
      14B3u    5.785445     6B1g    5.788235     6B2g    5.788235
       6B3g    5.798560    16Ag     5.798560     7B1g    5.815886
       7B2g    5.815886    14B2u    5.820669    14B1u    5.820669
       7B3g    5.840424    17Ag     5.840424    18Ag     6.407375
       8B1g    6.423983     8B2g    6.423983    19Ag     6.475769
       8B3g    6.475769    20Ag     6.729091    15B3u    8.056483
      15B1u    8.122523    15B2u    8.122523    21Ag     9.736096
       9B2g    9.737709     9B1g    9.737709     9B3g    9.742556
      22Ag     9.742556    10B1g    9.750657    10B2g    9.750657
      10B3g    9.762047    23Ag     9.762047    11B2g    9.776775
      11B1g    9.776775    11B3g    9.794907    24Ag     9.794907
      16B3u   11.168038    16B1u   11.170712    16B2u   11.170712
       6Au    11.178750    17B3u   11.178750    17B1u   11.192199
      17B2u   11.192199     7Au    11.211140    18B3u   11.211140
      18B1u   11.235691    18B2u   11.235691    19B3u   12.615776
      19B2u   12.624161    19B1u   12.624161    20B3u   12.649418
       8Au    12.649418    20B2u   12.691885    20B1u   12.691885
      25Ag    13.346865    12B1g   13.351646    12B2g   13.351646
      12B3g   13.366011    26Ag    13.366011    13B1g   13.390041
      13B2g   13.390041    27Ag    13.423882    13B3g   13.423882
      28Ag    14.612484    14B1g   14.629588    14B2g   14.629588
      14B3g   14.682085    29Ag    14.682085    30Ag    20.142513
      21B3u   22.793080    21B1u   22.845440    21B2u   22.845440
      31Ag    23.100662    15B1g   23.102882    15B2g   23.102882
      15B3g   23.109551    32Ag    23.109551    16B1g   23.120689
      16B2g   23.120689    16B3g   23.136331    33Ag    23.136331
      17B1g   23.156527    17B2g   23.156527    17B3g   23.181343
      34Ag    23.181343    22B3u   27.170799    22B2u   27.174122
      22B1u   27.174122    23B3u   27.184102     9Au    27.184102
      23B1u   27.200774    23B2u   27.200774    24B3u   27.224194
      10Au    27.224194    24B2u   27.254444    24B1u   27.254444
      25B3u   28.813473    25B1u   28.821381    25B2u   28.821381
      26B3u   28.845175    11Au    28.845175    26B1u   28.885070
      26B2u   28.885070    35Ag    31.834570    18B1g   31.839484
      18B2g   31.839484    36Ag    31.854243    18B3g   31.854243
      19B2g   31.878909    19B1g   31.878909    37Ag    31.913584
      19B3g   31.913584    38Ag    34.861525    20B1g   34.875637
      20B2g   34.875637    20B3g   34.918505    39Ag    34.918505
      40Ag    99.838340

    Beta Occupied:

       1Ag   -20.183421     2Ag    -0.729454     1B1u   -0.079838
       1B2u   -0.079838

    Beta Virtual:

       1B3u    0.228294     2B1u    0.240184     2B2u    0.240184
       3Ag     0.322735     2B3u    0.438582     4Ag     0.585230
       1B2g    0.585487     1B1g    0.585487     5Ag     0.586615
       1B3g    0.586615     3B1u    0.621875     3B2u    0.621875
       3B3u    0.709823     6Ag     0.899038     4B3u    1.055635
       4B2u    1.056770     4B1u    1.056770     5B3u    1.060200
       1Au     1.060200     5B2u    1.065916     5B1u    1.065916
       7Ag     1.404606     2B3g    1.404606     2B1g    1.411567
       2B2g    1.411567     8Ag     1.414436     6B2u    1.485231
       6B1u    1.485231     6B3u    1.533856     9Ag     2.356103
       3B1g    2.357407     3B2g    2.357407     3B3g    2.361324
      10Ag     2.361324     4B2g    2.367869     4B1g    2.367869
       4B3g    2.377040    11Ag     2.377040    12Ag     2.479542
       7B3u    2.629607     7B1u    2.631551     7B2u    2.631551
       2Au     2.637351     8B3u    2.637351     8B1u    2.646908
       8B2u    2.646908    13Ag     3.014689     5B3g    3.014689
       5B2g    3.024704     5B1g    3.024704    14Ag     3.028767
       9B1u    3.455176     9B2u    3.455176     9B3u    3.476463
      10B3u    4.776741    10B1u    4.778046    10B2u    4.778046
       3Au     4.781967    11B3u    4.781967    11B1u    4.788516
      11B2u    4.788516    12B3u    4.797717     4Au     4.797717
      12B2u    4.809601    12B1u    4.809601    13B3u    5.802952
      13B1u    5.805726    13B2u    5.805726    15Ag     5.806419
       6B1g    5.808609     6B2g    5.808609     5Au     5.814029
      14B3u    5.814029     6B3g    5.815179    16Ag     5.815179
       7B1g    5.826120     7B2g    5.826120    14B1u    5.827803
      14B2u    5.827803     7B3g    5.841393    17Ag     5.841393
      18Ag     6.495470     8B1g    6.496235     8B2g    6.496235
      19Ag     6.497861     8B3g    6.497861    20Ag     6.770917
      15B3u    8.142374    15B1u    8.146246    15B2u    8.146246
      21Ag     9.747300     9B1g    9.748602     9B2g    9.748602
       9B3g    9.752510    22Ag     9.752510    10B1g    9.759037
      10B2g    9.759037    10B3g    9.768201    23Ag     9.768201
      11B2g    9.780028    11B1g    9.780028    11B3g    9.794555
      24Ag     9.794555    16B3u   11.188389    16B1u   11.190348
      16B2u   11.190348     6Au    11.196231    17B3u   11.196231
      17B1u   11.206061    17B2u   11.206061     7Au    11.219874
      18B3u   11.219874    18B2u   11.237723    18B1u   11.237723
      19B3u   12.669569    19B2u   12.673502    19B1u   12.673502
      20B3u   12.685318     8Au    12.685318    20B2u   12.705078
      20B1u   12.705078    25Ag    13.383670    12B1g   13.386631
      12B2g   13.386631    12B3g   13.395519    26Ag    13.395519
      13B1g   13.410340    13B2g   13.410340    27Ag    13.431102
      13B3g   13.431102    28Ag    14.679812    14B1g   14.685185
      14B2g   14.685185    14B3g   14.701605    29Ag    14.701605
      30Ag    20.173207    21B3u   22.848054    21B1u   22.862416
      21B2u   22.862416    31Ag    23.121135    15B1g   23.122886
      15B2g   23.122886    15B3g   23.128144    32Ag    23.128144
      16B1g   23.136923    16B2g   23.136923    16B3g   23.149246
      33Ag    23.149246    17B1g   23.165147    17B2g   23.165147
      17B3g   23.184669    34Ag    23.184669    22B3u   27.200324
      22B2u   27.202736    22B1u   27.202736    23B3u   27.209979
       9Au    27.209979    23B1u   27.222075    23B2u   27.222075
      10Au    27.239060    24B3u   27.239060    24B2u   27.260985
      24B1u   27.260985    25B3u   28.856936    25B1u   28.861421
      25B2u   28.861421    26B3u   28.874908    11Au    28.874908
      26B1u   28.897493    26B2u   28.897493    35Ag    31.870691
      18B1g   31.873954    18B2g   31.873954    36Ag    31.883753
      18B3g   31.883753    19B2g   31.900119    19B1g   31.900119
      37Ag    31.923104    19B3g   31.923104    38Ag    34.902038
      20B1g   34.909253    20B2g   34.909253    20B3g   34.931136
      39Ag    34.931136    40Ag    99.849333

    Final Occupation by Irrep:
             Ag   B1g   B2g   B3g    Au   B1u   B2u   B3u
    DOCC [     2,    0,    0,    0,    0,    1,    1,    0 ]
    SOCC [     0,    0,    0,    0,    0,    0,    0,    1 ]

  @UHF Final Energy:   -74.79783732043815

   => Energetics <=

    Nuclear Repulsion Energy =              0.0000000000000000
    One-Electron Energy =                -106.8564591520109275
    Two-Electron Energy =                  32.0586218315727862
    Total Energy =                        -74.7978373204381342

  UHF NO Occupations:
  HONO-2 :    1B1u 1.9952899
  HONO-1 :    1B2u 1.9952899
  HONO-0 :    1B3u 1.0000000
  LUNO+0 :    2B2u 0.0047101
  LUNO+1 :    2B1u 0.0047101
  LUNO+2 :    3 Ag 0.0021112
  LUNO+3 :    4 Ag 0.0000012

Computation Completed

Properties will be evaluated at   0.000000,   0.000000,   0.000000 [a0]

Properties computed using the SCF density matrix

  Nuclear Dipole Moment: [e a0]
     X:     0.0000      Y:     0.0000      Z:     0.0000

  Electronic Dipole Moment: [e a0]
     X:     0.0000      Y:     0.0000      Z:     0.0000

  Dipole Moment: [e a0]
     X:     0.0000      Y:     0.0000      Z:     0.0000     Total:     0.0000

  Dipole Moment: [D]
     X:     0.0000      Y:     0.0000      Z:     0.0000     Total:     0.0000

*** tstop() called on n411-011.vsc4.prov at Thu Jan 21 13:19:45 2021
Module time:
	user time   =     118.70 seconds =       1.98 minutes
	system time =       3.57 seconds =       0.06 minutes
	total time  =        105 seconds =       1.75 minutes
Total time:
	user time   =     118.70 seconds =       1.98 minutes
	system time =       3.57 seconds =       0.06 minutes
	total time  =        105 seconds =       1.75 minutes

*** tstart() called on n411-011.vsc4.prov
*** at Thu Jan 21 13:19:45 2021

	Wfn Parameters:
	--------------------
	Wavefunction         = CCSD_T
	Number of irreps     = 8
	Number of MOs        = 189
	Number of active MOs = 188
	AO-Basis             = NONE
	Semicanonical        = false
	Reference            = UHF
	Print Level          = 1

	IRREP	# MOs	# FZDC	# DOCC	# SOCC	# VIRT	# FZVR
	-----	-----	------	------	------	------	------
	 Ag	   40	    1	    1	    0	    38	    0
	 B1g	   20	    0	    0	    0	    20	    0
	 B2g	   20	    0	    0	    0	    20	    0
	 B3g	   20	    0	    0	    0	    20	    0
	 Au	   11	    0	    0	    0	    11	    0
	 B1u	   26	    0	    1	    0	    25	    0
	 B2u	   26	    0	    1	    0	    25	    0
	 B3u	   26	    0	    0	    1	    25	    0
	Transforming integrals...
	IWL integrals will be deleted.
	(OO|OO)...
	Presorting SO-basis two-electron integrals.
	Sorting File: SO Ints (nn|nn) nbuckets = 1
	Constructing frozen core operators
	Starting AA/AB first half-transformation.
	Sorting AA/AB half-transformed integrals.
	Starting BB first half-transformation.
	Sorting BB half-transformed integrals.
	First half integral transformation complete.
	Starting AA second half-transformation.
	Starting AB second half-transformation.
	Starting BB second half-transformation.
	Two-electron integral transformation complete.
	(OO|OV)...
	Starting AA second half-transformation.
	Starting AB second half-transformation.
	Starting BB second half-transformation.
	Two-electron integral transformation complete.
	(OO|VV)...
	Starting AA second half-transformation.
	Starting AB second half-transformation.
	Starting BB second half-transformation.
	Two-electron integral transformation complete.
	(OV|OO)...
	Starting AA/AB first half-transformation.
	Sorting AA/AB half-transformed integrals.
	Starting BB first half-transformation.
	Sorting BB half-transformed integrals.
	First half integral transformation complete.
	Starting AA second half-transformation.
	Starting AB second half-transformation.
	Starting BB second half-transformation.
	Two-electron integral transformation complete.
	(OV|OV)...
	Starting AA second half-transformation.
	Starting AB second half-transformation.
	Starting BB second half-transformation.
	Two-electron integral transformation complete.
	(OV|VV)...
	Starting AA second half-transformation.
	Starting AB second half-transformation.
	Starting BB second half-transformation.
	Two-electron integral transformation complete.
	(VV|OO)...
	Starting AA/AB first half-transformation.
	Sorting AA/AB half-transformed integrals.
	Starting BB first half-transformation.
	Sorting BB half-transformed integrals.
	First half integral transformation complete.
	Starting AA second half-transformation.
	Starting AB second half-transformation.
	Starting BB second half-transformation.
	Two-electron integral transformation complete.
	(VV|OV)...
	Starting AA second half-transformation.
	Starting AB second half-transformation.
	Starting BB second half-transformation.
	Two-electron integral transformation complete.
	(VV|VV)...
	Starting AA second half-transformation.
	Starting AB second half-transformation.
	Starting BB second half-transformation.
	Two-electron integral transformation complete.
	Frozen core energy     =    -59.10695381697825

	Size of irrep 0 of <AB|CD> integrals:      4.964 (MW) /     39.712 (MB)
	Size of irrep 1 of <AB|CD> integrals:      4.244 (MW) /     33.949 (MB)
	Size of irrep 2 of <AB|CD> integrals:      4.244 (MW) /     33.949 (MB)
	Size of irrep 3 of <AB|CD> integrals:      4.244 (MW) /     33.949 (MB)
	Size of irrep 4 of <AB|CD> integrals:      3.679 (MW) /     29.430 (MB)
	Size of irrep 5 of <AB|CD> integrals:      4.709 (MW) /     37.671 (MB)
	Size of irrep 6 of <AB|CD> integrals:      4.709 (MW) /     37.671 (MB)
	Size of irrep 7 of <AB|CD> integrals:      4.709 (MW) /     37.671 (MB)
	Total:                                    35.500 (MW) /    284.002 (MB)

	Size of irrep 0 of <ab|cd> integrals:      5.076 (MW) /     40.608 (MB)
	Size of irrep 1 of <ab|cd> integrals:      4.347 (MW) /     34.778 (MB)
	Size of irrep 2 of <ab|cd> integrals:      4.347 (MW) /     34.778 (MB)
	Size of irrep 3 of <ab|cd> integrals:      4.289 (MW) /     34.312 (MB)
	Size of irrep 4 of <ab|cd> integrals:      3.756 (MW) /     30.047 (MB)
	Size of irrep 5 of <ab|cd> integrals:      4.796 (MW) /     38.369 (MB)
	Size of irrep 6 of <ab|cd> integrals:      4.796 (MW) /     38.369 (MB)
	Size of irrep 7 of <ab|cd> integrals:      4.875 (MW) /     39.002 (MB)
	Total:                                    36.283 (MW) /    290.262 (MB)

	Size of irrep 0 of <Ab|Cd> integrals:     21.762 (MW) /    174.098 (MB)
	Size of irrep 1 of <Ab|Cd> integrals:     17.181 (MW) /    137.448 (MB)
	Size of irrep 2 of <Ab|Cd> integrals:     17.181 (MW) /    137.448 (MB)
	Size of irrep 3 of <Ab|Cd> integrals:     17.065 (MW) /    136.521 (MB)
	Size of irrep 4 of <Ab|Cd> integrals:     14.869 (MW) /    118.950 (MB)
	Size of irrep 5 of <Ab|Cd> integrals:     19.010 (MW) /    152.077 (MB)
	Size of irrep 6 of <Ab|Cd> integrals:     19.010 (MW) /    152.077 (MB)
	Size of irrep 7 of <Ab|Cd> integrals:     19.167 (MW) /    153.335 (MB)
	Total:                                   145.244 (MW) /   1161.954 (MB)

	Size of irrep 0 of <IA|BC> integrals:      0.524 (MW) /      4.195 (MB)
	Size of irrep 1 of <IA|BC> integrals:      0.334 (MW) /      2.670 (MB)
	Size of irrep 2 of <IA|BC> integrals:      0.334 (MW) /      2.670 (MB)
	Size of irrep 3 of <IA|BC> integrals:      0.334 (MW) /      2.670 (MB)
	Size of irrep 4 of <IA|BC> integrals:      0.272 (MW) /      2.179 (MB)
	Size of irrep 5 of <IA|BC> integrals:      0.447 (MW) /      3.576 (MB)
	Size of irrep 6 of <IA|BC> integrals:      0.447 (MW) /      3.576 (MB)
	Size of irrep 7 of <IA|BC> integrals:      0.447 (MW) /      3.576 (MB)
	Total:                                     3.139 (MW) /     25.111 (MB)

	Size of irrep 0 of <ia|bc> integrals:      0.413 (MW) /      3.302 (MB)
	Size of irrep 1 of <ia|bc> integrals:      0.238 (MW) /      1.902 (MB)
	Size of irrep 2 of <ia|bc> integrals:      0.238 (MW) /      1.902 (MB)
	Size of irrep 3 of <ia|bc> integrals:      0.290 (MW) /      2.320 (MB)
	Size of irrep 4 of <ia|bc> integrals:      0.198 (MW) /      1.581 (MB)
	Size of irrep 5 of <ia|bc> integrals:      0.364 (MW) /      2.908 (MB)
	Size of irrep 6 of <ia|bc> integrals:      0.364 (MW) /      2.908 (MB)
	Size of irrep 7 of <ia|bc> integrals:      0.291 (MW) /      2.332 (MB)
	Total:                                     2.394 (MW) /     19.155 (MB)

	Size of irrep 0 of <Ia|Bc> integrals:      0.532 (MW) /      4.254 (MB)
	Size of irrep 1 of <Ia|Bc> integrals:      0.340 (MW) /      2.719 (MB)
	Size of irrep 2 of <Ia|Bc> integrals:      0.340 (MW) /      2.719 (MB)
	Size of irrep 3 of <Ia|Bc> integrals:      0.335 (MW) /      2.677 (MB)
	Size of irrep 4 of <Ia|Bc> integrals:      0.274 (MW) /      2.190 (MB)
	Size of irrep 5 of <Ia|Bc> integrals:      0.449 (MW) /      3.593 (MB)
	Size of irrep 6 of <Ia|Bc> integrals:      0.449 (MW) /      3.593 (MB)
	Size of irrep 7 of <Ia|Bc> integrals:      0.455 (MW) /      3.642 (MB)
	Total:                                     3.173 (MW) /     25.388 (MB)

	Size of irrep 0 of <iA|bC> integrals:      0.411 (MW) /      3.284 (MB)
	Size of irrep 1 of <iA|bC> integrals:      0.232 (MW) /      1.857 (MB)
	Size of irrep 2 of <iA|bC> integrals:      0.232 (MW) /      1.857 (MB)
	Size of irrep 3 of <iA|bC> integrals:      0.289 (MW) /      2.313 (MB)
	Size of irrep 4 of <iA|bC> integrals:      0.197 (MW) /      1.573 (MB)
	Size of irrep 5 of <iA|bC> integrals:      0.362 (MW) /      2.895 (MB)
	Size of irrep 6 of <iA|bC> integrals:      0.362 (MW) /      2.895 (MB)
	Size of irrep 7 of <iA|bC> integrals:      0.285 (MW) /      2.277 (MB)
	Total:                                     2.369 (MW) /     18.951 (MB)

	Size of irrep 0 of tIjAb amplitudes:       0.014 (MW) /      0.112 (MB)
	Size of irrep 1 of tIjAb amplitudes:       0.004 (MW) /      0.033 (MB)
	Size of irrep 2 of tIjAb amplitudes:       0.004 (MW) /      0.033 (MB)
	Size of irrep 3 of tIjAb amplitudes:       0.008 (MW) /      0.066 (MB)
	Size of irrep 4 of tIjAb amplitudes:       0.000 (MW) /      0.000 (MB)
	Size of irrep 5 of tIjAb amplitudes:       0.009 (MW) /      0.070 (MB)
	Size of irrep 6 of tIjAb amplitudes:       0.009 (MW) /      0.070 (MB)
	Size of irrep 7 of tIjAb amplitudes:       0.004 (MW) /      0.035 (MB)
	Total:                                     0.052 (MW) /      0.419 (MB)

	Nuclear Rep. energy          =      0.00000000000000
	SCF energy                   =    -74.79783732043815
	One-electron energy          =    -29.05048206855231
	Two-electron (AA) energy     =      3.61145659991190
	Two-electron (BB) energy     =      1.62987241375040
	Two-electron (AB) energy     =      8.11826955142868
	Two-electron energy          =     13.35959856509098
	Reference energy             =    -74.79783732043958

*** tstop() called on n411-011.vsc4.prov at Thu Jan 21 13:20:49 2021
Module time:
	user time   =      17.29 seconds =       0.29 minutes
	system time =      12.15 seconds =       0.20 minutes
	total time  =         64 seconds =       1.07 minutes
Total time:
	user time   =     135.99 seconds =       2.27 minutes
	system time =      15.72 seconds =       0.26 minutes
	total time  =        169 seconds =       2.82 minutes
            **************************
            *                        *
            *        CCENERGY        *
            *                        *
            **************************

    Nuclear Rep. energy (wfn)     =    0.000000000000000
    SCF energy          (wfn)     =  -74.797837320438148
    Reference energy    (file100) =  -74.797837320439584

    Input parameters:
    -----------------
    Wave function   =     CCSD_T

      * MP2 total energy                      =  -75.042572614413743
      * CCSD total energy                     =  -75.045131971752610
      * CCSD(T) total energy                     =  -75.055284083961809
*** Psi4 exiting successfully. Buy a developer a beer!
