                               Psi4 1.2a1.dev939

  ==> Input File <==

--------------------------------------------------------------------------
# Any line starting with the # character is a comment line
memory 250000 mb
molecule molecule{
1 3
P          0.0000000000        0.0000000000        0.0000000000
}

set {
  reference uhf
  basis aug-cc-pv(6+d)z
  scf_type OUT_OF_CORE
  freeze_core true
}

energy('ccsd')
--------------------------------------------------------------------------

    Molecular point group: d2h
    Geometry (in Angstrom), charge = 1, multiplicity = 3:

       Center              X                  Y                   Z               Mass
    ------------   -----------------  -----------------  -----------------  -----------------
           P          0.000000000000     0.000000000000     0.000000000000    30.973761629000

  Charge       = 1
  Multiplicity = 3
  Basis Set: AUG-CC-PV(6+D)Z
    Blend: AUG-CC-PV(6+D)Z

    Orbital Energies (a.u.)
    -----------------------

    Alpha Occupied:

       1Ag   -80.388782     2Ag    -7.922649     1B1u   -5.823848
       1B3u   -5.823848     1B2u   -5.806597     3Ag    -1.137984
       2B1u   -0.725310     2B3u   -0.725310

    Alpha Virtual:

       2B2u   -0.339249     4Ag    -0.115835     3B1u   -0.078949
       3B3u   -0.078949     3B2u   -0.077288     5Ag    -0.047493
       1B2g   -0.047493     1B1g   -0.043390     1B3g   -0.043390
       6Ag    -0.041627     4B1u    0.053541     4B3u    0.053541
       4B2u    0.060190     7Ag     0.101530     8Ag     0.115366
       2B2g    0.115366     2B1g    0.127845     2B3g    0.127845
       9Ag     0.133768     5B2u    0.147471     5B3u    0.148285
       5B1u    0.148285     6B2u    0.150873     1Au     0.150873
       6B3u    0.155462     6B1u    0.155462    10Ag     0.485297
       3B1g    0.486115     3B3g    0.486115     3B2g    0.488585
      11Ag     0.488585     4B3g    0.492715     4B1g    0.492715
      12Ag     0.498424     4B2g    0.498424     7B1u    0.509670
       7B3u    0.509670     7B2u    0.519366    13Ag     0.605471
       5B2g    0.605471     5B3g    0.607683     5B1g    0.607683
      14Ag     0.609022     8B2u    0.650502     8B3u    0.651677
       8B1u    0.651677     9B2u    0.655432     2Au     0.655432
       9B3u    0.662008     9B1u    0.662008    15Ag     0.833396
      10B2u    1.350786    10B3u    1.351692    10B1u    1.351692
       3Au     1.354419    11B2u    1.354419    11B1u    1.358997
      11B3u    1.358997    12B2u    1.365477     4Au     1.365477
      12B3u    1.373928    12B1u    1.373928    16Ag     1.451761
       6B1g    1.453293     6B3g    1.453293    17Ag     1.457873
       6B2g    1.457873     7B3g    1.465455     7B1g    1.465455
      18Ag     1.475966     7B2g    1.475966    13B2u    1.696400
      13B3u    1.698518    13B1u    1.698518    14B2u    1.704738
       5Au     1.704738    14B3u    1.714575    14B1u    1.714575
      19Ag     1.730407     8B1g    1.735372     8B3g    1.735372
      20Ag     1.750536     8B2g    1.750536    15B2u    1.868363
      15B1u    1.871926    15B3u    1.871926    21Ag     3.075216
      22Ag     3.085234     9B1g    3.086247     9B3g    3.086247
       9B2g    3.089294    23Ag     3.089294    10B1g    3.094391
      10B3g    3.094391    10B2g    3.101569    24Ag     3.101569
      11B1g    3.110872    11B3g    3.110872    25Ag     3.122358
      11B2g    3.122358    26Ag     3.267034    12B1g    3.269194
      12B3g    3.269194    12B2g    3.275679    27Ag     3.275679
      13B1g    3.286495    13B3g    3.286495    28Ag     3.301653
      13B2g    3.301653    16B2u    3.374329    16B3u    3.375848
      16B1u    3.375848     6Au     3.380420    17B2u    3.380420
      17B1u    3.388082    17B3u    3.388082     7Au     3.398897
      18B2u    3.398897    18B1u    3.412953    18B3u    3.412953
      19B2u    3.922109    19B3u    3.925524    19B1u    3.925524
       8Au     3.935845    20B2u    3.935845    20B1u    3.953267
      20B3u    3.953267    29Ag     4.067836    14B1g    4.074694
      14B3g    4.074694    14B2g    4.096685    30Ag     4.096685
      21B2u    5.815183    21B3u    5.827880    21B1u    5.827880
      31Ag     6.726869    15B1g    6.729415    15B3g    6.729415
      15B2g    6.737075    32Ag     6.737075    16B1g    6.749913
      16B3g    6.749913    16B2g    6.768031    33Ag     6.768031
      34Ag     7.131670    17B1g    7.133067    17B3g    7.133067
      17B2g    7.137267    35Ag     7.137267    18B1g    7.144304
      18B3g    7.144304    36Ag     7.154234    18B2g    7.154234
      19B1g    7.167139    19B3g    7.167139    19B2g    7.183125
      37Ag     7.183125    22B2u    7.503923    22B3u    7.505791
      22B1u    7.505791     9Au     7.511410    23B2u    7.511410
      23B3u    7.520827    23B1u    7.520827    10Au     7.534121
      24B2u    7.534121    24B3u    7.551399    24B1u    7.551399
      25B2u    8.648505    25B3u    8.652340    25B1u    8.652340
      11Au     8.663948    26B2u    8.663948    26B3u    8.683647
      26B1u    8.683647    38Ag     8.857888    20B1g    8.864255
      20B3g    8.864255    20B2g    8.883096    39Ag     8.883096
      40Ag    10.099242    27B2u   25.362583    27B3u   25.364849
      27B1u   25.364849    41Ag    25.473657    21B1g   25.475598
      21B3g   25.475598    21B2g   25.481611    42Ag    25.481611
      43Ag   208.719383

    Beta Occupied:

       1Ag   -80.371125     2Ag    -7.904838     1B2u   -5.798250
       1B3u   -5.778075     1B1u   -5.778075     3Ag    -0.934143

    Beta Virtual:

       2B2u   -0.311238     2B3u   -0.252107     2B1u   -0.252107
       4Ag    -0.108484     3B2u   -0.075699     3B3u   -0.068501
       3B1u   -0.068501     5Ag    -0.032224     1B1g   -0.029545
       1B3g   -0.029545     1B2g   -0.020328     6Ag    -0.020328
       4B2u    0.064183     4B3u    0.079975     4B1u    0.079975
       7Ag     0.117689     5B2u    0.149844     5B3u    0.151004
       5B1u    0.151004     1Au     0.154517     6B2u    0.154517
       6B3u    0.160737     6B1u    0.160737     8Ag     0.161416
       2B1g    0.167901     2B3g    0.167901     2B2g    0.192059
       9Ag     0.192059    10Ag     0.487845     3B1g    0.488801
       3B3g    0.488801     3B2g    0.491670    11Ag     0.491670
       4B3g    0.496475     4B1g    0.496475    12Ag     0.503382
       4B2g    0.503382     7B2u    0.528001     7B3u    0.560196
       7B1u    0.560196    13Ag     0.635987     5B1g    0.644750
       5B3g    0.644750     8B2u    0.665280     8B3u    0.668601
       8B1u    0.668601     5B2g    0.675906    14Ag     0.675906
       2Au     0.678635     9B2u    0.678635     9B3u    0.696509
       9B1u    0.696509    15Ag     0.863520    10B2u    1.355429
      10B3u    1.356526    10B1u    1.356526     3Au     1.359833
      11B2u    1.359833    11B1u    1.365402    11B3u    1.365402
      12B2u    1.373329     4Au     1.373329    12B3u    1.383761
      12B1u    1.383761    16Ag     1.462781     6B1g    1.465176
       6B3g    1.465176     6B2g    1.472349    17Ag     1.472349
       7B3g    1.484290     7B1g    1.484290    18Ag     1.501137
       7B2g    1.501137    13B2u    1.720383    13B3u    1.726152
      13B1u    1.726152     5Au     1.743126    14B2u    1.743126
      19Ag     1.746082     8B1g    1.755556     8B3g    1.755556
      14B3u    1.771952    14B1u    1.771952     8B2g    1.787675
      20Ag     1.787675    15B2u    1.879541    15B3u    1.925638
      15B1u    1.925638    21Ag     3.092287     9B1g    3.093552
       9B3g    3.093552     9B2g    3.097350    22Ag     3.097350
      10B1g    3.103698    10B3g    3.103698    23Ag     3.104023
      10B2g    3.112627    24Ag     3.112627    11B1g    3.124187
      11B3g    3.124187    25Ag     3.138457    11B2g    3.138457
      26Ag     3.284381    12B1g    3.287954    12B3g    3.287954
      12B2g    3.298699    27Ag     3.298699    13B1g    3.316671
      13B3g    3.316671    28Ag     3.342000    13B2g    3.342000
      16B2u    3.386948    16B3u    3.389049    16B1u    3.389049
       6Au     3.395380    17B2u    3.395380    17B1u    3.406025
      17B3u    3.406025     7Au     3.421135    18B2u    3.421135
      18B1u    3.440943    18B3u    3.440943    19B2u    3.939955
      19B3u    3.946011    19B1u    3.946011     8Au     3.964374
      20B2u    3.964374    20B1u    3.995788    20B3u    3.995788
      29Ag     4.079559    14B1g    4.089386    14B3g    4.089386
      14B2g    4.122732    30Ag     4.122732    21B2u    5.823191
      21B3u    5.865281    21B1u    5.865281    31Ag     6.739888
      15B1g    6.743560    15B3g    6.743560    15B2g    6.754609
      32Ag     6.754609    16B1g    6.773133    16B3g    6.773133
      16B2g    6.799299    33Ag     6.799299    34Ag     7.143717
      17B1g    7.145506    17B3g    7.145506    17B2g    7.150889
      35Ag     7.150889    18B1g    7.159918    18B3g    7.159918
      36Ag     7.172683    18B2g    7.172683    19B1g    7.189317
      19B3g    7.189317    19B2g    7.210013    37Ag     7.210013
      22B2u    7.517434    22B3u    7.519986    22B1u    7.519986
       9Au     7.527669    23B2u    7.527669    23B3u    7.540558
      23B1u    7.540558    10Au     7.558782    24B2u    7.558782
      24B3u    7.582530    24B1u    7.582530    25B2u    8.655025
      25B3u    8.659848    25B1u    8.659848    11Au     8.674461
      26B2u    8.674461    26B3u    8.699363    26B1u    8.699363
      38Ag     8.867179    20B1g    8.876771    20B3g    8.876771
      20B2g    8.905293    39Ag     8.905293    40Ag    10.117587
      27B2u   25.368642    27B3u   25.391967    27B1u   25.391967
      41Ag    25.484978    21B1g   25.490505    21B3g   25.490505
      21B2g   25.507344    42Ag    25.507344    43Ag   208.725910

    Final Occupation by Irrep:
             Ag   B1g   B2g   B3g    Au   B1u   B2u   B3u
    DOCC [     3,    0,    0,    0,    0,    1,    1,    1 ]
    SOCC [     0,    0,    0,    0,    0,    1,    0,    1 ]

  Energy converged.

  @UHF Final Energy:  -340.35526879370963

   => Energetics <=

    Nuclear Repulsion Energy =              0.0000000000000000
    One-Electron Energy =                -465.7917028643609569
    Two-Electron Energy =                 125.4364340706513161
    Total Energy =                       -340.3552687937096266

  UHF NO Occupations:
  HONO-2 :    3 Ag 1.9932530
  HONO-1 :    2B3u 1.0000000
  HONO-0 :    2B1u 1.0000000
  LUNO+0 :    4 Ag 0.0067470
  LUNO+1 :    3B1u 0.0000074
  LUNO+2 :    3B3u 0.0000074
  LUNO+3 :    5 Ag 0.0000007

Properties will be evaluated at   0.000000,   0.000000,   0.000000 Bohr

Properties computed using the SCF density matrix

  Nuclear Dipole Moment: (a.u.)
     X:     0.0000      Y:     0.0000      Z:     0.0000

  Electronic Dipole Moment: (a.u.)
     X:     0.0000      Y:     0.0000      Z:     0.0000

  Dipole Moment: (a.u.)
     X:     0.0000      Y:     0.0000      Z:     0.0000     Total:     0.0000

  Dipole Moment: (Debye)
     X:     0.0000      Y:     0.0000      Z:     0.0000     Total:     0.0000

*** tstop() called on n412-071.vsc4.prov at Mon Nov  2 11:17:21 2020
Module time:
	user time   =     276.94 seconds =       4.62 minutes
	system time =       7.54 seconds =       0.13 minutes
	total time  =         90 seconds =       1.50 minutes
Total time:
	user time   =     276.94 seconds =       4.62 minutes
	system time =       7.54 seconds =       0.13 minutes
	total time  =         90 seconds =       1.50 minutes

*** tstart() called on n412-071.vsc4.prov
*** at Mon Nov  2 11:17:21 2020

	Wfn Parameters:
	--------------------
	Wavefunction         = CCSD
	Number of irreps     = 8
	Number of MOs        = 198
	Number of active MOs = 193
	AO-Basis             = NONE
	Semicanonical        = false
	Reference            = UHF
	Print Level          = 1

	IRREP	# MOs	# FZDC	# DOCC	# SOCC	# VIRT	# FZVR
	-----	-----	------	------	------	------	------
	 Ag	   43	    2	    1	    0	    40	    0
	 B1g	   21	    0	    0	    0	    21	    0
	 B2g	   21	    0	    0	    0	    21	    0
	 B3g	   21	    0	    0	    0	    21	    0
	 Au	   11	    0	    0	    0	    11	    0
	 B1u	   27	    1	    0	    1	    25	    0
	 B2u	   27	    1	    0	    0	    26	    0
	 B3u	   27	    1	    0	    1	    25	    0
	Transforming integrals...
	IWL integrals will be deleted.
	(OO|OO)...
	Presorting SO-basis two-electron integrals.
	Sorting File: SO Ints (nn|nn) nbuckets = 1
	Transforming the one-electron integrals and constructing Fock matrices
	Starting AA/AB first half-transformation.
	Sorting AA/AB half-transformed integrals.
	Starting BB first half-transformation.
	Sorting BB half-transformed integrals.
	First half integral transformation complete.
	Starting AA second half-transformation.
	Starting AB second half-transformation.
	Starting BB second half-transformation.
	Two-electron integral transformation complete.
	(OO|OV)...
	Starting AA second half-transformation.
	Starting AB second half-transformation.
	Starting BB second half-transformation.
	Two-electron integral transformation complete.
	(OO|VV)...
	Starting AA second half-transformation.
	Starting AB second half-transformation.
	Starting BB second half-transformation.
	Two-electron integral transformation complete.
	(OV|OO)...
	Starting AA/AB first half-transformation.
	Sorting AA/AB half-transformed integrals.
	Starting BB first half-transformation.
	Sorting BB half-transformed integrals.
	First half integral transformation complete.
	Starting AA second half-transformation.
	Starting AB second half-transformation.
	Starting BB second half-transformation.
	Two-electron integral transformation complete.
	(OV|OV)...
	Starting AA second half-transformation.
	Starting AB second half-transformation.
	Starting BB second half-transformation.
	Two-electron integral transformation complete.
	(OV|VV)...
	Starting AA second half-transformation.
	Starting AB second half-transformation.
	Starting BB second half-transformation.
	Two-electron integral transformation complete.
	(VV|OO)...
	Starting AA/AB first half-transformation.
	Sorting AA/AB half-transformed integrals.
	Starting BB first half-transformation.
	Sorting BB half-transformed integrals.
	First half integral transformation complete.
	Starting AA second half-transformation.
	Starting AB second half-transformation.
	Starting BB second half-transformation.
	Two-electron integral transformation complete.
	(VV|OV)...
	Starting AA second half-transformation.
	Starting AB second half-transformation.
	Starting BB second half-transformation.
	Two-electron integral transformation complete.
	(VV|VV)...
	Starting AA second half-transformation.
	Starting AB second half-transformation.
	Starting BB second half-transformation.
	Two-electron integral transformation complete.
	Frozen core energy     =   -334.36294055023762

	Size of irrep 0 of <AB|CD> integrals:      5.712 (MW) /     45.697 (MB)
	Size of irrep 1 of <AB|CD> integrals:      4.866 (MW) /     38.931 (MB)
	Size of irrep 2 of <AB|CD> integrals:      4.805 (MW) /     38.439 (MB)
	Size of irrep 3 of <AB|CD> integrals:      4.866 (MW) /     38.931 (MB)
	Size of irrep 4 of <AB|CD> integrals:      4.145 (MW) /     33.162 (MB)
	Size of irrep 5 of <AB|CD> integrals:      5.299 (MW) /     42.394 (MB)
	Size of irrep 6 of <AB|CD> integrals:      5.387 (MW) /     43.096 (MB)
	Size of irrep 7 of <AB|CD> integrals:      5.299 (MW) /     42.394 (MB)
	Total:                                    40.381 (MW) /    323.045 (MB)

	Size of irrep 0 of <ab|cd> integrals:      5.954 (MW) /     47.629 (MB)
	Size of irrep 1 of <ab|cd> integrals:      5.031 (MW) /     40.248 (MB)
	Size of irrep 2 of <ab|cd> integrals:      5.031 (MW) /     40.248 (MB)
	Size of irrep 3 of <ab|cd> integrals:      5.031 (MW) /     40.248 (MB)
	Size of irrep 4 of <ab|cd> integrals:      4.318 (MW) /     34.545 (MB)
	Size of irrep 5 of <ab|cd> integrals:      5.584 (MW) /     44.670 (MB)
	Size of irrep 6 of <ab|cd> integrals:      5.584 (MW) /     44.670 (MB)
	Size of irrep 7 of <ab|cd> integrals:      5.584 (MW) /     44.670 (MB)
	Total:                                    42.116 (MW) /    336.929 (MB)

	Size of irrep 0 of <Ab|Cd> integrals:     25.200 (MW) /    201.603 (MB)
	Size of irrep 1 of <Ab|Cd> integrals:     19.794 (MW) /    158.349 (MB)
	Size of irrep 2 of <Ab|Cd> integrals:     19.660 (MW) /    157.283 (MB)
	Size of irrep 3 of <Ab|Cd> integrals:     19.794 (MW) /    158.349 (MB)
	Size of irrep 4 of <Ab|Cd> integrals:     16.925 (MW) /    135.400 (MB)
	Size of irrep 5 of <Ab|Cd> integrals:     21.762 (MW) /    174.098 (MB)
	Size of irrep 6 of <Ab|Cd> integrals:     21.940 (MW) /    175.519 (MB)
	Size of irrep 7 of <Ab|Cd> integrals:     21.762 (MW) /    174.098 (MB)
	Total:                                   166.837 (MW) /   1334.698 (MB)

	Size of irrep 0 of <IA|BC> integrals:      0.447 (MW) /      3.578 (MB)
	Size of irrep 1 of <IA|BC> integrals:      0.256 (MW) /      2.047 (MB)
	Size of irrep 2 of <IA|BC> integrals:      0.311 (MW) /      2.490 (MB)
	Size of irrep 3 of <IA|BC> integrals:      0.256 (MW) /      2.047 (MB)
	Size of irrep 4 of <IA|BC> integrals:      0.216 (MW) /      1.727 (MB)
	Size of irrep 5 of <IA|BC> integrals:      0.396 (MW) /      3.168 (MB)
	Size of irrep 6 of <IA|BC> integrals:      0.316 (MW) /      2.525 (MB)
	Size of irrep 7 of <IA|BC> integrals:      0.396 (MW) /      3.168 (MB)
	Total:                                     2.594 (MW) /     20.750 (MB)

	Size of irrep 0 of <ia|bc> integrals:      0.203 (MW) /      1.623 (MB)
	Size of irrep 1 of <ia|bc> integrals:      0.094 (MW) /      0.754 (MB)
	Size of irrep 2 of <ia|bc> integrals:      0.094 (MW) /      0.754 (MB)
	Size of irrep 3 of <ia|bc> integrals:      0.094 (MW) /      0.754 (MB)
	Size of irrep 4 of <ia|bc> integrals:      0.046 (MW) /      0.366 (MB)
	Size of irrep 5 of <ia|bc> integrals:      0.123 (MW) /      0.983 (MB)
	Size of irrep 6 of <ia|bc> integrals:      0.123 (MW) /      0.983 (MB)
	Size of irrep 7 of <ia|bc> integrals:      0.123 (MW) /      0.983 (MB)
	Total:                                     0.900 (MW) /      7.199 (MB)

	Size of irrep 0 of <Ia|Bc> integrals:      0.462 (MW) /      3.695 (MB)
	Size of irrep 1 of <Ia|Bc> integrals:      0.258 (MW) /      2.064 (MB)
	Size of irrep 2 of <Ia|Bc> integrals:      0.324 (MW) /      2.589 (MB)
	Size of irrep 3 of <Ia|Bc> integrals:      0.258 (MW) /      2.064 (MB)
	Size of irrep 4 of <Ia|Bc> integrals:      0.218 (MW) /      1.744 (MB)
	Size of irrep 5 of <Ia|Bc> integrals:      0.406 (MW) /      3.247 (MB)
	Size of irrep 6 of <Ia|Bc> integrals:      0.319 (MW) /      2.548 (MB)
	Size of irrep 7 of <Ia|Bc> integrals:      0.406 (MW) /      3.247 (MB)
	Total:                                     2.650 (MW) /     21.199 (MB)

	Size of irrep 0 of <iA|bC> integrals:      0.201 (MW) /      1.606 (MB)
	Size of irrep 1 of <iA|bC> integrals:      0.093 (MW) /      0.747 (MB)
	Size of irrep 2 of <iA|bC> integrals:      0.093 (MW) /      0.745 (MB)
	Size of irrep 3 of <iA|bC> integrals:      0.093 (MW) /      0.747 (MB)
	Size of irrep 4 of <iA|bC> integrals:      0.045 (MW) /      0.362 (MB)
	Size of irrep 5 of <iA|bC> integrals:      0.117 (MW) /      0.933 (MB)
	Size of irrep 6 of <iA|bC> integrals:      0.122 (MW) /      0.974 (MB)
	Size of irrep 7 of <iA|bC> integrals:      0.117 (MW) /      0.933 (MB)
	Total:                                     0.881 (MW) /      7.048 (MB)

	Size of irrep 0 of tIjAb amplitudes:       0.005 (MW) /      0.040 (MB)
	Size of irrep 1 of tIjAb amplitudes:       0.000 (MW) /      0.000 (MB)
	Size of irrep 2 of tIjAb amplitudes:       0.000 (MW) /      0.000 (MB)
	Size of irrep 3 of tIjAb amplitudes:       0.000 (MW) /      0.000 (MB)
	Size of irrep 4 of tIjAb amplitudes:       0.000 (MW) /      0.000 (MB)
	Size of irrep 5 of tIjAb amplitudes:       0.005 (MW) /      0.037 (MB)
	Size of irrep 6 of tIjAb amplitudes:       0.000 (MW) /      0.000 (MB)
	Size of irrep 7 of tIjAb amplitudes:       0.005 (MW) /      0.037 (MB)
	Total:                                     0.014 (MW) /      0.115 (MB)

	Nuclear Rep. energy          =      0.00000000000000
	SCF energy                   =   -340.35526879370963
	One-electron energy          =     -8.46190893190657
	Two-electron (AA) energy     =      1.08247633595778
	Two-electron (BB) energy     =      0.00000000000000
	Two-electron (AB) energy     =      1.38710435247778
	Two-electron energy          =      2.46958068843557
	Reference energy             =   -340.35526879370860

*** tstop() called on n412-071.vsc4.prov at Mon Nov  2 11:18:37 2020
Module time:
	user time   =      24.90 seconds =       0.41 minutes
	system time =       9.53 seconds =       0.16 minutes
	total time  =         76 seconds =       1.27 minutes
Total time:
	user time   =     301.84 seconds =       5.03 minutes
	system time =      17.07 seconds =       0.28 minutes
	total time  =        166 seconds =       2.77 minutes

*** tstart() called on n412-071.vsc4.prov
*** at Mon Nov  2 11:18:37 2020

            **************************
            *                        *
            *        CCENERGY        *

      * MP2 total energy                      = -340.424918662293294
      * CCSD total energy                     = -340.441967824838059
*** Psi4 exiting successfully. Buy a developer a beer!
