                               Psi4 1.2a1.dev938

  ==> Input File <==

--------------------------------------------------------------------------
# Any line starting with the # character is a comment line
memory 250000 mb
molecule molecule{
1 3
P          0.0000000000        0.0000000000        0.0000000000
}

set {
  reference uhf
  basis aug-cc-pv(5+d)z
  scf_type OUT_OF_CORE
  freeze_core true
}

energy('ccsd')
--------------------------------------------------------------------------

    Molecular point group: d2h
    Geometry (in Angstrom), charge = 1, multiplicity = 3:

       Center              X                  Y                   Z               Mass
    ------------   -----------------  -----------------  -----------------  -----------------
           P          0.000000000000     0.000000000000     0.000000000000    30.973761629000

  Charge       = 1
  Multiplicity = 3
  Basis Set: AUG-CC-PV(5+D)Z
    Blend: AUG-CC-PV(5+D)Z

    Orbital Energies (a.u.)
    -----------------------

    Alpha Occupied:

       1Ag   -80.389099     2Ag    -7.922636     1B3u   -5.823796
       1B2u   -5.823796     1B1u   -5.806806     3Ag    -1.137982
       2B3u   -0.725281     2B2u   -0.725281

    Alpha Virtual:

       2B1u   -0.339312     4Ag    -0.114880     3B3u   -0.076639
       3B2u   -0.076639     3B1u   -0.074618     1B1g   -0.045588
       5Ag    -0.045588     1B3g   -0.041069     1B2g   -0.041069
       6Ag    -0.039128     4B3u    0.101647     4B2u    0.101647
       4B1u    0.110936     7Ag     0.125776     2B1g    0.131253
       8Ag     0.131253     2B2g    0.144160     2B3g    0.144160
       9Ag     0.150511     5B1u    0.168240     5B3u    0.168989
       5B2u    0.168989     1Au     0.171652     6B1u    0.171652
       6B3u    0.176562     6B2u    0.176562    10Ag     0.651121
       3B2g    0.652238     3B3g    0.652238     3B1g    0.655838
      11Ag     0.655838     4B3g    0.662264     4B2g    0.662264
      12Ag     0.669635     4B1g    0.669635     5B1g    0.671269
      13Ag     0.671269     5B2g    0.672471     5B3g    0.672471
      14Ag     0.673318     7B1u    0.704514     7B3u    0.706088
       7B2u    0.706088     2Au     0.710660     8B1u    0.710660
       8B3u    0.717341     8B2u    0.717341     9B3u    0.809498
       9B2u    0.809498     9B1u    0.819638    15Ag     1.017084
      10B1u    1.847746    10B3u    1.849898    10B2u    1.849898
      11B1u    1.852802    11B3u    1.853980    11B2u    1.853980
       3Au     1.856235    12B1u    1.856235     4Au     1.857594
      13B1u    1.857594    12B3u    1.863322    12B2u    1.863322
      13B3u    1.866965    13B2u    1.866965    14B1u    1.871707
       5Au     1.871707    14B3u    1.882602    14B2u    1.882602
      16Ag     1.958458     6B2g    1.964146     6B3g    1.964146
       6B1g    1.981521    17Ag     1.981521    18Ag     1.996090
       7B2g    1.997684     7B3g    1.997684     7B1g    2.002522
      19Ag     2.002522     8B2g    2.008771     8B3g    2.008771
       8B1g    2.021421    20Ag     2.021421    15B1u    3.261855
      15B3u    3.267617    15B2u    3.267617    16B1u    4.215096
      16B3u    4.218536    16B2u    4.218536     6Au     4.228946
      17B1u    4.228946    17B3u    4.246567    17B2u    4.246567
      21Ag     4.383500    22Ag     4.520454     9B3g    4.524886
       9B2g    4.524886     9B1g    4.546373    23Ag     4.546373
      18B1u    4.835001    18B2u    4.836738    18B3u    4.836738
      19B1u    4.841966     7Au     4.841966    19B3u    4.850732
      19B2u    4.850732    20B1u    4.863119     8Au     4.863119
      20B2u    4.879237    20B3u    4.879237    24Ag     4.911399
      10B2g    4.913717    10B3g    4.913717    25Ag     4.920716
      10B1g    4.920716    11B2g    4.932538    11B3g    4.932538
      26Ag     4.949457    11B1g    4.949457    27Ag    12.721448
      12B3g   12.725152    12B2g   12.725152    28Ag    12.736518
      12B1g   12.736518    21B1u   16.228901    21B3u   16.229833
      21B2u   16.229833    29Ag    44.382842

    Beta Occupied:

       1Ag   -80.371388     2Ag    -7.905013     1B1u   -5.798478
       1B2u   -5.778216     1B3u   -5.778216     3Ag    -0.934204

    Beta Virtual:

       2B1u   -0.311296     2B2u   -0.252125     2B3u   -0.252125
       4Ag    -0.107277     3B1u   -0.072805     3B2u   -0.064591
       3B3u   -0.064591     5Ag    -0.028952     1B3g   -0.026103
       1B2g   -0.026103     6Ag    -0.016233     1B1g   -0.016233
       4B1u    0.116498     4B2u    0.137452     4B3u    0.137452
       7Ag     0.144286     5B1u    0.171083     5B3u    0.172390
       5B2u    0.172390     6B1u    0.176077     1Au     0.176077
       8Ag     0.179530     6B2u    0.182982     6B3u    0.182982
       2B3g    0.186354     2B2g    0.186354     9Ag     0.211950
       2B1g    0.211950    10Ag     0.657147     3B2g    0.658589
       3B3g    0.658589    11Ag     0.662759     3B1g    0.662759
       4B3g    0.669564     4B2g    0.669564     4B1g    0.679299
      12Ag     0.679299    13Ag     0.698640     5B3g    0.707498
       5B2g    0.707498     7B1u    0.720656     7B2u    0.724710
       7B3u    0.724710     8B1u    0.736072     2Au     0.736072
      14Ag     0.739254     5B1g    0.739254     8B2u    0.755144
       8B3u    0.755144     9B1u    0.830930     9B2u    0.871516
       9B3u    0.871516    15Ag     1.050842    10B1u    1.858794
      10B2u    1.860924    10B3u    1.860924    11B1u    1.866443
       3Au     1.866443    11B3u    1.874746    11B2u    1.874746
      12B1u    1.874986    12B2u    1.880178    12B3u    1.880178
      13B1u    1.886030     4Au     1.886030    14B1u    1.896815
       5Au     1.896815    13B2u    1.900583    13B3u    1.900583
      14B2u    1.926411    14B3u    1.926411    16Ag     1.971711
       6B3g    1.981511     6B2g    1.981511    17Ag     2.011861
       6B1g    2.011861    18Ag     2.015502     7B3g    2.018642
       7B2g    2.018642    19Ag     2.031272     7B1g    2.031272
       8B3g    2.037310     8B2g    2.037310     8B1g    2.059550
      20Ag     2.059550    15B1u    3.272046    15B2u    3.318024
      15B3u    3.318024    16B1u    4.231438    16B2u    4.237292
      16B3u    4.237292    17B1u    4.255048     6Au     4.255048
      17B2u    4.285494    17B3u    4.285494    21Ag     4.405915
      22Ag     4.534905     9B3g    4.538054     9B2g    4.538054
      23Ag     4.570727     9B1g    4.570727    18B1u    4.850841
      18B2u    4.853340    18B3u    4.853340    19B1u    4.860870
       7Au     4.860870    19B3u    4.873527    19B2u    4.873527
       8Au     4.891484    20B1u    4.891484    20B2u    4.914996
      20B3u    4.914996    24Ag     4.930228    10B3g    4.933913
      10B2g    4.933913    25Ag     4.945087    10B1g    4.945087
      11B3g    4.964097    11B2g    4.964097    26Ag     4.991766
      11B1g    4.991766    27Ag    12.731292    12B3g   12.738266
      12B2g   12.738266    28Ag    12.759625    12B1g   12.759625
      21B1u   16.235756    21B3u   16.262910    21B2u   16.262910
      29Ag    44.396147

    Final Occupation by Irrep:
             Ag   B1g   B2g   B3g    Au   B1u   B2u   B3u
    DOCC [     3,    0,    0,    0,    0,    1,    1,    1 ]
    SOCC [     0,    0,    0,    0,    0,    0,    1,    1 ]

  Energy converged.

  @UHF Final Energy:  -340.35514849338955

   => Energetics <=

    Nuclear Repulsion Energy =              0.0000000000000000
    One-Electron Energy =                -465.7901046360513533
    Two-Electron Energy =                 125.4349561426618322
    PCM Polarization Energy =               0.0000000000000000
    Total Energy =                       -340.3551484933894926

    Alert: EFP and PCM quantities not currently incorporated into SCF psivars.
  UHF NO Occupations:
  HONO-2 :    3 Ag 1.9932628
  HONO-1 :    2B2u 1.0000000
  HONO-0 :    2B3u 1.0000000
  LUNO+0 :    4 Ag 0.0067372
  LUNO+1 :    3B2u 0.0000070
  LUNO+2 :    3B3u 0.0000070
  LUNO+3 :    2B1u 0.0000006

Properties will be evaluated at   0.000000,   0.000000,   0.000000 Bohr

Properties computed using the SCF density matrix

  Nuclear Dipole Moment: (a.u.)
     X:     0.0000      Y:     0.0000      Z:     0.0000

  Electronic Dipole Moment: (a.u.)
     X:     0.0000      Y:     0.0000      Z:     0.0000

  Dipole Moment: (a.u.)
     X:     0.0000      Y:     0.0000      Z:     0.0000     Total:     0.0000

  Dipole Moment: (Debye)
     X:     0.0000      Y:     0.0000      Z:     0.0000     Total:     0.0000

*** tstop() called on cqc05 at Fri Aug 21 06:48:38 2020
Module time:
	user time   =       8.50 seconds =       0.14 minutes
	system time =       0.21 seconds =       0.00 minutes
	total time  =          8 seconds =       0.13 minutes
Total time:
	user time   =       8.50 seconds =       0.14 minutes
	system time =       0.21 seconds =       0.00 minutes
	total time  =          8 seconds =       0.13 minutes

*** tstart() called on cqc05
*** at Fri Aug 21 06:48:38 2020

	Wfn Parameters:
	--------------------
	Wavefunction         = CCSD
	Number of irreps     = 8
	Number of MOs        = 136
	Number of active MOs = 131
	AO-Basis             = NONE
	Semicanonical        = false
	Reference            = UHF
	Print Level          = 1

	IRREP	# MOs	# FZDC	# DOCC	# SOCC	# VIRT	# FZVR
	-----	-----	------	------	------	------	------
	 Ag	   29	    2	    1	    0	    26	    0
	 B1g	   12	    0	    0	    0	    12	    0
	 B2g	   12	    0	    0	    0	    12	    0
	 B3g	   12	    0	    0	    0	    12	    0
	 Au	   8	    0	    0	    0	    8	    0
	 B1u	   21	    1	    0	    0	    20	    0
	 B2u	   21	    1	    0	    1	    19	    0
	 B3u	   21	    1	    0	    1	    19	    0
	Transforming integrals...
	IWL integrals will be deleted.
	(OO|OO)...
	Presorting SO-basis two-electron integrals.
	Sorting File: SO Ints (nn|nn) nbuckets = 1
	Transforming the one-electron integrals and constructing Fock matrices
	Starting AA/AB first half-transformation.
	Sorting AA/AB half-transformed integrals.
	Starting BB first half-transformation.
	Sorting BB half-transformed integrals.
	First half integral transformation complete.
	Starting AA second half-transformation.
	Starting AB second half-transformation.
	Starting BB second half-transformation.
	Two-electron integral transformation complete.
	(OO|OV)...
	Starting AA second half-transformation.
	Starting AB second half-transformation.
	Starting BB second half-transformation.
	Two-electron integral transformation complete.
	(OO|VV)...
	Starting AA second half-transformation.
	Starting AB second half-transformation.
	Starting BB second half-transformation.
	Two-electron integral transformation complete.
	(OV|OO)...
	Starting AA/AB first half-transformation.
	Sorting AA/AB half-transformed integrals.
	Starting BB first half-transformation.
	Sorting BB half-transformed integrals.
	First half integral transformation complete.
	Starting AA second half-transformation.
	Starting AB second half-transformation.
	Starting BB second half-transformation.
	Two-electron integral transformation complete.
	(OV|OV)...
	Starting AA second half-transformation.
	Starting AB second half-transformation.
	Starting BB second half-transformation.
	Two-electron integral transformation complete.
	(OV|VV)...
	Starting AA second half-transformation.
	Starting AB second half-transformation.
	Starting BB second half-transformation.
	Two-electron integral transformation complete.
	(VV|OO)...
	Starting AA/AB first half-transformation.
	Sorting AA/AB half-transformed integrals.
	Starting BB first half-transformation.
	Sorting BB half-transformed integrals.
	First half integral transformation complete.
	Starting AA second half-transformation.
	Starting AB second half-transformation.
	Starting BB second half-transformation.
	Two-electron integral transformation complete.
	(VV|OV)...
	Starting AA second half-transformation.
	Starting AB second half-transformation.
	Starting BB second half-transformation.
	Two-electron integral transformation complete.
	(VV|VV)...
	Starting AA second half-transformation.
	Starting AB second half-transformation.
	Starting BB second half-transformation.
	Two-electron integral transformation complete.
	Frozen core energy     =   -334.36291332559159

	Size of irrep 0 of <AB|CD> integrals:      1.173 (MW) /      9.383 (MB)
	Size of irrep 1 of <AB|CD> integrals:      0.955 (MW) /      7.636 (MB)
	Size of irrep 2 of <AB|CD> integrals:      0.976 (MW) /      7.809 (MB)
	Size of irrep 3 of <AB|CD> integrals:      0.976 (MW) /      7.809 (MB)
	Size of irrep 4 of <AB|CD> integrals:      0.817 (MW) /      6.538 (MB)
	Size of irrep 5 of <AB|CD> integrals:      1.149 (MW) /      9.193 (MB)
	Size of irrep 6 of <AB|CD> integrals:      1.119 (MW) /      8.955 (MB)
	Size of irrep 7 of <AB|CD> integrals:      1.119 (MW) /      8.955 (MB)
	Total:                                     8.285 (MW) /     66.279 (MB)

	Size of irrep 0 of <ab|cd> integrals:      1.257 (MW) /     10.053 (MB)
	Size of irrep 1 of <ab|cd> integrals:      1.032 (MW) /      8.258 (MB)
	Size of irrep 2 of <ab|cd> integrals:      1.032 (MW) /      8.258 (MB)
	Size of irrep 3 of <ab|cd> integrals:      1.032 (MW) /      8.258 (MB)
	Size of irrep 4 of <ab|cd> integrals:      0.861 (MW) /      6.889 (MB)
	Size of irrep 5 of <ab|cd> integrals:      1.201 (MW) /      9.610 (MB)
	Size of irrep 6 of <ab|cd> integrals:      1.201 (MW) /      9.610 (MB)
	Size of irrep 7 of <ab|cd> integrals:      1.201 (MW) /      9.610 (MB)
	Total:                                     8.818 (MW) /     70.546 (MB)

	Size of irrep 0 of <Ab|Cd> integrals:      5.438 (MW) /     43.506 (MB)
	Size of irrep 1 of <Ab|Cd> integrals:      3.968 (MW) /     31.745 (MB)
	Size of irrep 2 of <Ab|Cd> integrals:      4.016 (MW) /     32.128 (MB)
	Size of irrep 3 of <Ab|Cd> integrals:      4.016 (MW) /     32.128 (MB)
	Size of irrep 4 of <Ab|Cd> integrals:      3.356 (MW) /     26.850 (MB)
	Size of irrep 5 of <Ab|Cd> integrals:      4.700 (MW) /     37.602 (MB)
	Size of irrep 6 of <Ab|Cd> integrals:      4.640 (MW) /     37.118 (MB)
	Size of irrep 7 of <Ab|Cd> integrals:      4.640 (MW) /     37.118 (MB)
	Total:                                    34.774 (MW) /    278.194 (MB)

	Size of irrep 0 of <IA|BC> integrals:      0.147 (MW) /      1.175 (MB)
	Size of irrep 1 of <IA|BC> integrals:      0.098 (MW) /      0.782 (MB)
	Size of irrep 2 of <IA|BC> integrals:      0.079 (MW) /      0.632 (MB)
	Size of irrep 3 of <IA|BC> integrals:      0.079 (MW) /      0.632 (MB)
	Size of irrep 4 of <IA|BC> integrals:      0.058 (MW) /      0.463 (MB)
	Size of irrep 5 of <IA|BC> integrals:      0.094 (MW) /      0.755 (MB)
	Size of irrep 6 of <IA|BC> integrals:      0.121 (MW) /      0.965 (MB)
	Size of irrep 7 of <IA|BC> integrals:      0.121 (MW) /      0.965 (MB)
	Total:                                     0.796 (MW) /      6.368 (MB)

	Size of irrep 0 of <ia|bc> integrals:      0.062 (MW) /      0.493 (MB)
	Size of irrep 1 of <ia|bc> integrals:      0.024 (MW) /      0.195 (MB)
	Size of irrep 2 of <ia|bc> integrals:      0.024 (MW) /      0.195 (MB)
	Size of irrep 3 of <ia|bc> integrals:      0.024 (MW) /      0.195 (MB)
	Size of irrep 4 of <ia|bc> integrals:      0.015 (MW) /      0.119 (MB)
	Size of irrep 5 of <ia|bc> integrals:      0.044 (MW) /      0.351 (MB)
	Size of irrep 6 of <ia|bc> integrals:      0.044 (MW) /      0.351 (MB)
	Size of irrep 7 of <ia|bc> integrals:      0.044 (MW) /      0.351 (MB)
	Total:                                     0.281 (MW) /      2.250 (MB)

	Size of irrep 0 of <Ia|Bc> integrals:      0.154 (MW) /      1.231 (MB)
	Size of irrep 1 of <Ia|Bc> integrals:      0.104 (MW) /      0.829 (MB)
	Size of irrep 2 of <Ia|Bc> integrals:      0.080 (MW) /      0.641 (MB)
	Size of irrep 3 of <Ia|Bc> integrals:      0.080 (MW) /      0.641 (MB)
	Size of irrep 4 of <Ia|Bc> integrals:      0.059 (MW) /      0.469 (MB)
	Size of irrep 5 of <Ia|Bc> integrals:      0.095 (MW) /      0.763 (MB)
	Size of irrep 6 of <Ia|Bc> integrals:      0.125 (MW) /      0.999 (MB)
	Size of irrep 7 of <Ia|Bc> integrals:      0.125 (MW) /      0.999 (MB)
	Total:                                     0.822 (MW) /      6.574 (MB)

	Size of irrep 0 of <iA|bC> integrals:      0.061 (MW) /      0.485 (MB)
	Size of irrep 1 of <iA|bC> integrals:      0.024 (MW) /      0.191 (MB)
	Size of irrep 2 of <iA|bC> integrals:      0.024 (MW) /      0.192 (MB)
	Size of irrep 3 of <iA|bC> integrals:      0.024 (MW) /      0.192 (MB)
	Size of irrep 4 of <iA|bC> integrals:      0.015 (MW) /      0.117 (MB)
	Size of irrep 5 of <iA|bC> integrals:      0.043 (MW) /      0.347 (MB)
	Size of irrep 6 of <iA|bC> integrals:      0.041 (MW) /      0.327 (MB)
	Size of irrep 7 of <iA|bC> integrals:      0.041 (MW) /      0.327 (MB)
	Total:                                     0.273 (MW) /      2.180 (MB)

	Size of irrep 0 of tIjAb amplitudes:       0.002 (MW) /      0.019 (MB)
	Size of irrep 1 of tIjAb amplitudes:       0.000 (MW) /      0.000 (MB)
	Size of irrep 2 of tIjAb amplitudes:       0.000 (MW) /      0.000 (MB)
	Size of irrep 3 of tIjAb amplitudes:       0.000 (MW) /      0.000 (MB)
	Size of irrep 4 of tIjAb amplitudes:       0.000 (MW) /      0.000 (MB)
	Size of irrep 5 of tIjAb amplitudes:       0.000 (MW) /      0.000 (MB)
	Size of irrep 6 of tIjAb amplitudes:       0.002 (MW) /      0.017 (MB)
	Size of irrep 7 of tIjAb amplitudes:       0.002 (MW) /      0.017 (MB)
	Total:                                     0.007 (MW) /      0.053 (MB)

	Nuclear Rep. energy          =      0.00000000000000
	SCF energy                   =   -340.35514849338955
	One-electron energy          =     -8.46172237018142
	Two-electron (AA) energy     =      1.08241896251982
	Two-electron (BB) energy     =      0.00000000000000
	Two-electron (AB) energy     =      1.38706823986312
	Two-electron energy          =      2.46948720238295
	Reference energy             =   -340.35514849339006

*** tstop() called on cqc05 at Fri Aug 21 06:48:42 2020
Module time:
	user time   =       2.81 seconds =       0.05 minutes
	system time =       1.49 seconds =       0.02 minutes
	total time  =          4 seconds =       0.07 minutes
Total time:
	user time   =      11.31 seconds =       0.19 minutes
	system time =       1.70 seconds =       0.03 minutes
	total time  =         12 seconds =       0.20 minutes

*** tstart() called on cqc05
*** at Fri Aug 21 06:48:42 2020

            **************************
            *                        *
            *        CCENERGY        *
            *                        *
            **************************

    Nuclear Rep. energy (wfn)     =    0.000000000000000
    SCF energy          (wfn)     = -340.355148493389549
    Reference energy    (file100) = -340.355148493390061

    Input parameters:
    -----------------
    Wave function   =     CCSD
    Reference wfn   =     UHF
    Brueckner       =     No
    Memory (Mbytes) =     250000.0
    Maxiter         =     50
    R_Convergence   =     1.0e-07
    E_Convergence   =     1.0e-06
    Restart         =     Yes
    DIIS            =     Yes
    AO Basis        =     NONE
    ABCD            =     NEW
    Cache Level     =     2
    Cache Type      =     LRU
    Print Level     =     1
    Num. of threads =     4
    # Amps to Print =     10
    Print MP2 Amps? =     No
    Analyze T2 Amps =     No
    Print Pair Ener =     No
    Local CC        =     No
    SCS-MP2         =     False
    SCSN-MP2        =     False
    SCS-CCSD        =     False

MP2 correlation energy -0.0687839044551385
                Solving CC Amplitude Equations
                ------------------------------
  Iter             Energy              RMS        T1Diag      D1Diag    New D1Diag    D2Diag
  ----     ---------------------    ---------   ----------  ----------  ----------   --------
     0        -0.068783904455139    0.000e+00    0.000000    0.000000    0.000000    0.000000
     1        -0.080112471607614    4.857e-02    0.007971    0.000000    0.000000    0.000000

      * MP2 total energy                      = -340.423932397845192
      * CCSD total energy                     = -340.441472237424875
*** Psi4 exiting successfully. Buy a developer a beer!
