                               Psi4 1.4a3.dev88

  ==> Input File <==

--------------------------------------------------------------------------
# Any line starting with the # character is a comment line
memory 250000 mb
molecule molecule{
0 3
N          0.0000000000        0.0000000000       -0.0692230310
H          0.0000000000        0.0000000000        0.9619483577
}

set {
  reference uhf
  basis aug-cc-pV(5+d)Z
  scf_type OUT_OF_CORE
  freeze_core true
}

energy('ccsd(t)')
--------------------------------------------------------------------------

    Molecular point group: c2v

    Geometry (in Angstrom), charge = 0, multiplicity = 3:

       Center              X                  Y                   Z               Mass
    ------------   -----------------  -----------------  -----------------  -----------------
         N            0.000000000000     0.000000000000    -0.069232384783    14.003074004430
         H            0.000000000000     0.000000000000     0.961939003917     1.007825032230

  Charge       = 0
  Multiplicity = 3
  Basis Set: AUG-CC-PV(5+D)Z
    Blend: AUG-CC-PV(5+D)Z

    Orbital Energies [Eh]
    ---------------------

    Alpha Occupied:

       1A1   -15.637817     2A1    -1.174412     3A1    -0.587704
       1B1    -0.547049     1B2    -0.547049

    Alpha Virtual:

       4A1     0.023128     5A1     0.084383     2B1     0.085939
       2B2     0.085939     6A1     0.123170     7A1     0.168633
       3B1     0.178388     3B2     0.178388     8A1     0.288870
       1A2     0.288870     9A1     0.296734    10A1     0.337974
       4B1     0.364437     4B2     0.364437    11A1     0.426560
       5B1     0.433439     5B2     0.433439    12A1     0.467526
       6B1     0.524527     6B2     0.524527    13A1     0.536455
       2A2     0.536455    14A1     0.662377     7B2     0.783141
       7B1     0.783141    15A1     0.804565     8B2     0.877540
       8B1     0.877540    16A1     0.880769     3A2     0.880769
      17A1     0.896328     9B1     0.913470     9B2     0.913470
      18A1     0.996715    19A1     1.011264     4A2     1.011264
      10B1     1.188243    10B2     1.188243    20A1     1.197271
      11B2     1.256554    11B1     1.256554    12B1     1.314582
      12B2     1.314582     5A2     1.327839    21A1     1.327839
      22A1     1.395558    23A1     1.486293    13B1     1.594486
      13B2     1.594486    24A1     1.817342    25A1     2.051629
       6A2     2.051629    14B1     2.121125    14B2     2.121125
      26A1     2.154203     7A2     2.154203    15B2     2.302639
      15B1     2.302639    27A1     2.353873    16B1     2.362727
      16B2     2.362727    28A1     2.392858     8A2     2.399557
      29A1     2.399557    17B1     2.421045    17B2     2.421045
      18B2     2.429649    18B1     2.429649    30A1     2.434529
       9A2     2.488146    31A1     2.488146    32A1     2.839414
      10A2     2.980191    33A1     2.980191    19B1     3.008067
      19B2     3.008067    11A2     3.058686    34A1     3.058686
      35A1     3.179165    20B1     3.323993    20B2     3.323993
      21B1     3.350881    21B2     3.350881    36A1     3.471209
      12A2     3.480049    37A1     3.480049    38A1     3.668638
      22B1     3.758679    22B2     3.758679    23B1     4.295807
      23B2     4.295807    39A1     4.342897    24B2     4.355941
      24B1     4.355941    25B1     4.736470    25B2     4.736470
      13A2     4.932006    40A1     4.932006    41A1     4.952294
      14A2     5.040213    42A1     5.040213    26B1     5.124369
      26B2     5.124369    27B1     5.421572    27B2     5.421572
      15A2     5.605978    43A1     5.605978    44A1     5.649324
      16A2     5.659670    45A1     5.659670    46A1     5.689311
      28B2     5.691953    28B1     5.691953    29B1     5.749701
      29B2     5.749701    17A2     5.766934    47A1     5.766934
      30B2     5.804389    30B1     5.804389    31B1     5.981898
      31B2     5.981898    48A1     6.040614    32B2     6.159173
      32B1     6.159173    18A2     6.207911    49A1     6.207911
      19A2     6.456507    50A1     6.456507    51A1     6.881913
      52A1     7.333585    33B1     7.486193    33B2     7.486193
      53A1     7.517347    20A2     7.853452    54A1     7.853452
      34B1     7.914075    34B2     7.914075    55A1     8.918902
      35B1     8.986300    35B2     8.986300    56A1    11.037914
      57A1    12.022250    21A2    12.022250    36B1    12.062251
      36B2    12.062251    37B1    12.274793    37B2    12.274793
      38B1    12.381982    38B2    12.381982    58A1    12.443180
      22A2    12.443180    59A1    12.655797    39B1    12.688103
      39B2    12.688103    23A2    13.203311    60A1    13.203311
      61A1    13.254272    40B1    13.356731    40B2    13.356731
      62A1    13.747449    41B1    13.763473    41B2    13.763473
      42B1    14.098237    42B2    14.098237    24A2    14.158200
      63A1    14.158200    64A1    14.323079    25A2    14.323079
      43B1    14.403154    43B2    14.403154    65A1    14.487974
      26A2    14.518542    66A1    14.518542    44B1    14.609689
      44B2    14.609689    27A2    14.632022    67A1    14.632022
      45B1    14.774949    45B2    14.774949    68A1    15.242886
      28A2    15.242886    69A1    15.385177    46B1    15.931976
      46B2    15.931976    70A1    16.105326    47B1    16.317834
      47B2    16.317834    71A1    16.654325    29A2    16.654325
      72A1    16.747075    48B1    17.650458    48B2    17.650458
      73A1    17.820457    30A2    17.820457    74A1    18.310353
      49B1    18.456917    49B2    18.456917    50B2    20.672008
      50B1    20.672008    75A1    22.236841    76A1    22.947009
      77A1    51.531836

    Beta Occupied:

       1A1   -15.576805     2A1    -0.923327     3A1    -0.508996

    Beta Virtual:

       4A1     0.024802     1B2     0.059774     1B1     0.059774
       5A1     0.085905     6A1     0.130477     2B2     0.142543
       2B1     0.142543     7A1     0.171543     3B2     0.197447
       3B1     0.197447     1A2     0.298316     8A1     0.298316
       9A1     0.309413    10A1     0.343200     4B1     0.381266
       4B2     0.381266    11A1     0.436121    12A1     0.477142
       5B2     0.506746     5B1     0.506746     6B1     0.533623
       6B2     0.533623     2A2     0.541459    13A1     0.541459
      14A1     0.683639     7B1     0.792518     7B2     0.792518
      15A1     0.829585     8B1     0.891699     8B2     0.891699
      16A1     0.899485     3A2     0.905235    17A1     0.905235
       9B1     0.933020     9B2     0.933020    18A1     1.008549
       4A2     1.066326    19A1     1.066326    20A1     1.208947
      10B1     1.221833    10B2     1.221833    11B1     1.259435
      11B2     1.259435     5A2     1.329609    21A1     1.329609
      12B1     1.357372    12B2     1.357372    22A1     1.417689
      23A1     1.491806    13B1     1.651088    13B2     1.651088
      24A1     1.840870     6A2     2.069516    25A1     2.069516
      14B1     2.146302    14B2     2.146302    26A1     2.170756
       7A2     2.170756    15B1     2.348301    15B2     2.348301
      27A1     2.364041    16B1     2.373894    16B2     2.373894
       8A2     2.426028    28A1     2.426028    29A1     2.429200
      17B1     2.443814    17B2     2.443814    18B1     2.451846
      18B2     2.451846    30A1     2.455413    31A1     2.599438
       9A2     2.599438    32A1     2.852924    10A2     2.993081
      33A1     2.993081    19B1     3.025782    19B2     3.025782
      11A2     3.062904    34A1     3.062904    35A1     3.202931
      20B1     3.329767    20B2     3.329767    21B1     3.351198
      21B2     3.351198    36A1     3.475869    12A2     3.491587
      37A1     3.491587    38A1     3.695575    22B2     3.836368
      22B1     3.836368    23B2     4.351077    23B1     4.351077
      39A1     4.366279    24B1     4.366866    24B2     4.366866
      25B1     4.758676    25B2     4.758676    40A1     4.952926
      13A2     4.952926    41A1     4.970855    14A2     5.057813
      42A1     5.057813    26B1     5.143455    26B2     5.143455
      27B1     5.445953    27B2     5.445953    43A1     5.628012
      15A2     5.628012    44A1     5.658508    16A2     5.704871
      45A1     5.704871    46A1     5.710852    28B1     5.715927
      28B2     5.715927    29B1     5.762095    29B2     5.762095
      47A1     5.790008    17A2     5.790008    30B1     5.881611
      30B2     5.881611    31B1     5.995917    31B2     5.995917
      48A1     6.069114    32B1     6.183524    32B2     6.183524
      49A1     6.239336    18A2     6.239336    50A1     6.541425
      19A2     6.541425    51A1     6.902625    52A1     7.364800
      33B1     7.507302    33B2     7.507302    53A1     7.540115
      54A1     7.897398    20A2     7.897398    34B2     7.951445
      34B1     7.951445    55A1     8.930463    35B2     9.015951
      35B1     9.015951    56A1    11.080117    57A1    12.039465
      21A2    12.039465    36B1    12.082234    36B2    12.082234
      37B2    12.291729    37B1    12.291729    38B1    12.425453
      38B2    12.425453    22A2    12.475352    58A1    12.475352
      59A1    12.670206    39B2    12.755477    39B1    12.755477
      23A2    13.207777    60A1    13.207777    61A1    13.273107
      40B1    13.357711    40B2    13.357711    62A1    13.763104
      41B2    13.782936    41B1    13.782936    42B2    14.119925
      42B1    14.119925    63A1    14.161162    24A2    14.161162
      64A1    14.347474    25A2    14.347474    43B1    14.406802
      43B2    14.406802    65A1    14.512730    66A1    14.537874
      26A2    14.537874    44B1    14.676087    44B2    14.676087
      27A2    14.694192    67A1    14.694192    45B1    14.823757
      45B2    14.823757    68A1    15.286019    28A2    15.286019
      69A1    15.394939    46B2    15.946664    46B1    15.946664
      70A1    16.115134    47B2    16.343893    47B1    16.343893
      71A1    16.671175    29A2    16.671175    72A1    16.763277
      48B1    17.657658    48B2    17.657658    73A1    17.889899
      30A2    17.889899    74A1    18.325831    49B2    18.486454
      49B1    18.486454    50B2    20.689708    50B1    20.689708
      75A1    22.248449    76A1    22.951779    77A1    51.555124

    Final Occupation by Irrep:
             A1    A2    B1    B2
    DOCC [     3,    0,    0,    0 ]
    SOCC [     0,    0,    1,    1 ]

  @UHF Final Energy:   -54.98638914989613

   => Energetics <=

    Nuclear Repulsion Energy =              3.5922645985745829
    One-Electron Energy =                 -81.6541468295045973
    Two-Electron Energy =                  23.0754930810338834
    Total Energy =                        -54.9863891498961266

  UHF NO Occupations:
  HONO-2 :    3 A1 1.9938466
  HONO-1 :    1 B2 1.0000000
  HONO-0 :    1 B1 1.0000000
  LUNO+0 :    4 A1 0.0061534
  LUNO+1 :    5 A1 0.0021231
  LUNO+2 :    6 A1 0.0000030
  LUNO+3 :    7 A1 0.0000000

Computation Completed

Properties will be evaluated at   0.000000,   0.000000,   0.000000 [a0]

Properties computed using the SCF density matrix

  Nuclear Dipole Moment: [e a0]
     X:     0.0000      Y:     0.0000      Z:     0.9020

  Electronic Dipole Moment: [e a0]
     X:     0.0000      Y:     0.0000      Z:    -0.2584

  Dipole Moment: [e a0]
     X:     0.0000      Y:     0.0000      Z:     0.6436     Total:     0.6436

  Dipole Moment: [D]
     X:     0.0000      Y:     0.0000      Z:     1.6358     Total:     1.6358

*** tstop() called on n412-045.vsc4.prov at Fri Jan 22 01:50:48 2021
Module time:
	user time   =     125.24 seconds =       2.09 minutes
	system time =       5.67 seconds =       0.09 minutes
	total time  =         69 seconds =       1.15 minutes
Total time:
	user time   =     125.24 seconds =       2.09 minutes
	system time =       5.67 seconds =       0.09 minutes
	total time  =         69 seconds =       1.15 minutes

*** tstart() called on n412-045.vsc4.prov
*** at Fri Jan 22 01:50:48 2021

	Wfn Parameters:
	--------------------
	Wavefunction         = CCSD_T
	Number of irreps     = 4
	Number of MOs        = 207
	Number of active MOs = 206
	AO-Basis             = NONE
	Semicanonical        = false
	Reference            = UHF
	Print Level          = 1

	IRREP	# MOs	# FZDC	# DOCC	# SOCC	# VIRT	# FZVR
	-----	-----	------	------	------	------	------
	 A1	   77	    1	    2	    0	    74	    0
	 A2	   30	    0	    0	    0	    30	    0
	 B1	   50	    0	    0	    1	    49	    0
	 B2	   50	    0	    0	    1	    49	    0
	Transforming integrals...
	IWL integrals will be deleted.
	(OO|OO)...
	Presorting SO-basis two-electron integrals.
	Sorting File: SO Ints (nn|nn) nbuckets = 1
	Constructing frozen core operators
	Starting AA/AB first half-transformation.
	Sorting AA/AB half-transformed integrals.
	Starting BB first half-transformation.
	Sorting BB half-transformed integrals.
	First half integral transformation complete.
	Starting AA second half-transformation.
	Starting AB second half-transformation.
	Starting BB second half-transformation.
	Two-electron integral transformation complete.
	(OO|OV)...
	Starting AA second half-transformation.
	Starting AB second half-transformation.
	Starting BB second half-transformation.
	Two-electron integral transformation complete.
	(OO|VV)...
	Starting AA second half-transformation.
	Starting AB second half-transformation.
	Starting BB second half-transformation.
	Two-electron integral transformation complete.
	(OV|OO)...
	Starting AA/AB first half-transformation.
	Sorting AA/AB half-transformed integrals.
	Starting BB first half-transformation.
	Sorting BB half-transformed integrals.
	First half integral transformation complete.
	Starting AA second half-transformation.
	Starting AB second half-transformation.
	Starting BB second half-transformation.
	Two-electron integral transformation complete.
	(OV|OV)...
	Starting AA second half-transformation.
	Starting AB second half-transformation.
	Starting BB second half-transformation.
	Two-electron integral transformation complete.
	(OV|VV)...
	Starting AA second half-transformation.
	Starting AB second half-transformation.
	Starting BB second half-transformation.
	Two-electron integral transformation complete.
	(VV|OO)...
	Starting AA/AB first half-transformation.
	Sorting AA/AB half-transformed integrals.
	Starting BB first half-transformation.
	Sorting BB half-transformed integrals.
	First half integral transformation complete.
	Starting AA second half-transformation.
	Starting AB second half-transformation.
	Starting BB second half-transformation.
	Two-electron integral transformation complete.
	(VV|OV)...
	Starting AA second half-transformation.
	Starting AB second half-transformation.
	Starting BB second half-transformation.
	Two-electron integral transformation complete.
	(VV|VV)...
	Starting AA second half-transformation.
	Starting AB second half-transformation.
	Starting BB second half-transformation.
	Two-electron integral transformation complete.
	Frozen core energy     =    -45.75998076488348

	Size of irrep 0 of <AB|CD> integrals:     30.118 (MW) /    240.945 (MB)
	Size of irrep 1 of <AB|CD> integrals:     21.354 (MW) /    170.829 (MB)
	Size of irrep 2 of <AB|CD> integrals:     25.969 (MW) /    207.754 (MB)
	Size of irrep 3 of <AB|CD> integrals:     25.969 (MW) /    207.754 (MB)
	Total:                                   103.410 (MW) /    827.282 (MB)

	Size of irrep 0 of <ab|cd> integrals:     31.203 (MW) /    249.627 (MB)
	Size of irrep 1 of <ab|cd> integrals:     22.278 (MW) /    178.227 (MB)
	Size of irrep 2 of <ab|cd> integrals:     27.040 (MW) /    216.320 (MB)
	Size of irrep 3 of <ab|cd> integrals:     27.040 (MW) /    216.320 (MB)
	Total:                                   107.562 (MW) /    860.494 (MB)

	Size of irrep 0 of <Ab|Cd> integrals:    127.148 (MW) /   1017.185 (MB)
	Size of irrep 1 of <Ab|Cd> integrals:     87.236 (MW) /    697.885 (MB)
	Size of irrep 2 of <Ab|Cd> integrals:    106.008 (MW) /    848.061 (MB)
	Size of irrep 3 of <Ab|Cd> integrals:    106.008 (MW) /    848.061 (MB)
	Total:                                   426.399 (MW) /   3411.192 (MB)

	Size of irrep 0 of <IA|BC> integrals:      2.750 (MW) /     21.998 (MB)
	Size of irrep 1 of <IA|BC> integrals:      1.460 (MW) /     11.682 (MB)
	Size of irrep 2 of <IA|BC> integrals:      2.059 (MW) /     16.470 (MB)
	Size of irrep 3 of <IA|BC> integrals:      2.059 (MW) /     16.470 (MB)
	Total:                                     8.328 (MW) /     66.621 (MB)

	Size of irrep 0 of <ia|bc> integrals:      1.684 (MW) /     13.469 (MB)
	Size of irrep 1 of <ia|bc> integrals:      0.566 (MW) /      4.531 (MB)
	Size of irrep 2 of <ia|bc> integrals:      1.040 (MW) /      8.320 (MB)
	Size of irrep 3 of <ia|bc> integrals:      1.040 (MW) /      8.320 (MB)
	Total:                                     4.330 (MW) /     34.640 (MB)

	Size of irrep 0 of <Ia|Bc> integrals:      2.796 (MW) /     22.372 (MB)
	Size of irrep 1 of <Ia|Bc> integrals:      1.494 (MW) /     11.955 (MB)
	Size of irrep 2 of <Ia|Bc> integrals:      2.100 (MW) /     16.803 (MB)
	Size of irrep 3 of <Ia|Bc> integrals:      2.100 (MW) /     16.803 (MB)
	Total:                                     8.492 (MW) /     67.933 (MB)

	Size of irrep 0 of <iA|bC> integrals:      1.669 (MW) /     13.351 (MB)
	Size of irrep 1 of <iA|bC> integrals:      0.560 (MW) /      4.483 (MB)
	Size of irrep 2 of <iA|bC> integrals:      1.009 (MW) /      8.072 (MB)
	Size of irrep 3 of <iA|bC> integrals:      1.009 (MW) /      8.072 (MB)
	Total:                                     4.247 (MW) /     33.978 (MB)

	Size of irrep 0 of tIjAb amplitudes:       0.045 (MW) /      0.361 (MB)
	Size of irrep 1 of tIjAb amplitudes:       0.000 (MW) /      0.000 (MB)
	Size of irrep 2 of tIjAb amplitudes:       0.021 (MW) /      0.165 (MB)
	Size of irrep 3 of tIjAb amplitudes:       0.021 (MW) /      0.165 (MB)
	Total:                                     0.086 (MW) /      0.690 (MB)

	Nuclear Rep. energy          =      3.59226459857458
	SCF energy                   =    -54.98638914989613
	One-electron energy          =    -21.34880776348395
	Two-electron (AA) energy     =      3.21543688240226
	Two-electron (BB) energy     =      0.44815554917782
	Two-electron (AB) energy     =      4.86654234831627
	Two-electron energy          =      8.53013477989635
	Reference energy             =    -54.98638914989650

*** tstop() called on n412-045.vsc4.prov at Fri Jan 22 01:53:10 2021
Module time:
	user time   =      45.07 seconds =       0.75 minutes
	system time =      30.22 seconds =       0.50 minutes
	total time  =        142 seconds =       2.37 minutes
Total time:
	user time   =     170.31 seconds =       2.84 minutes
	system time =      35.89 seconds =       0.60 minutes
	total time  =        211 seconds =       3.52 minutes
            **************************
            *                        *
            *        CCENERGY        *
            *                        *
            **************************

    Nuclear Rep. energy (wfn)     =    3.592264598574583
    SCF energy          (wfn)     =  -54.986389149896127
    Reference energy    (file100) =  -54.986389149896496

    Input parameters:
    -----------------
    Wave function   =     CCSD_T
    Reference wfn   =     UHF
    Brueckner       =     No
    Memory (Mbytes) =     250000.0
    Maxiter         =     50
    R_Convergence   =     1.0e-07
    E_Convergence   =     1.0e-06
    Restart         =     Yes
    DIIS            =     Yes
    AO Basis        =     NONE
    ABCD            =     NEW
    Cache Level     =     2
    Cache Type      =     LRU
    Print Level     =     1
    Num. of threads =     48
    # Amps to Print =     10
    Print MP2 Amps? =     No
    Analyze T2 Amps =     No
    Print Pair Ener =     No
    Local CC        =     No
    SCS-MP2         =     False
    SCSN-MP2        =     False
    SCS-CCSD        =     False

MP2 correlation energy -0.1526035814517000
                Solving CC Amplitude Equations

      * MP2 total energy                      =  -55.138992731348196
      * CCSD total energy                     =  -55.154761823928489
      * CCSD(T) total energy                     =  -55.159519424771375
*** Psi4 exiting successfully. Buy a developer a beer!
