                               Psi4 1.4a3.dev88

  ==> Input File <==

--------------------------------------------------------------------------
# Any line starting with the # character is a comment line
memory 250000 mb
molecule molecule{
0 3
N          0.0000000000        0.0000000000       -0.0692230310
H          0.0000000000        0.0000000000        0.9619483577
}

set {
  reference uhf
  basis aug-cc-pV(t+d)Z
  scf_type OUT_OF_CORE
  freeze_core true
}

energy('ccsd(t)')
--------------------------------------------------------------------------

    Molecular point group: c2v

    Geometry (in Angstrom), charge = 0, multiplicity = 3:

       Center              X                  Y                   Z               Mass
    ------------   -----------------  -----------------  -----------------  -----------------
         N            0.000000000000     0.000000000000    -0.069232384783    14.003074004430
         H            0.000000000000     0.000000000000     0.961939003917     1.007825032230

  Charge       = 0
  Multiplicity = 3
  Basis Set: AUG-CC-PV(T+D)Z
    Blend: AUG-CC-PV(T+D)Z

    Orbital Energies [Eh]
    ---------------------

    Alpha Occupied:

       1A1   -15.639809     2A1    -1.175045     3A1    -0.587758
       1B2    -0.546798     1B1    -0.546798

    Alpha Virtual:

       4A1     0.029427     2B2     0.125938     2B1     0.125938
       5A1     0.126343     6A1     0.161373     7A1     0.238762
       3B2     0.263130     3B1     0.263130     8A1     0.414484
       9A1     0.449555     1A2     0.449555    10A1     0.504762
       4B1     0.556084     4B2     0.556084     5B2     0.746639
       5B1     0.746639    11A1     0.768326    12A1     0.797293
      13A1     0.911771     2A2     0.911771     6B2     0.946334
       6B1     0.946334    14A1     0.993106    15A1     1.311737
       7B2     1.325448     7B1     1.325448     8B2     1.483160
       8B1     1.483160    16A1     1.505729     3A2     1.505729
      17A1     1.683540     9B2     1.709048     9B1     1.709048
      18A1     1.758303     4A2     1.758303    19A1     2.088025
      10B2     2.185939    10B1     2.185939    20A1     2.195454
      21A1     3.213336    11B2     3.436438    11B1     3.436438
      22A1     3.897641     5A2     3.897641    23A1     3.980634
      12B2     4.064097    12B1     4.064097    24A1     4.559006
      13B2     4.712486    13B1     4.712486    14B2     4.838197
      14B1     4.838197    25A1     4.911607     6A2     5.003048
      26A1     5.003048    27A1     5.099906     7A2     5.099906
      15B2     5.269053    15B1     5.269053    16B2     5.944923
      16B1     5.944923    28A1     6.057247    29A1     6.315167
      30A1    11.859815

    Beta Occupied:

       1A1   -15.578967     2A1    -0.924044     3A1    -0.508970

    Beta Virtual:

       4A1     0.031716     1B2     0.071817     1B1     0.071817
       5A1     0.129562     6A1     0.172539     2B1     0.195822
       2B2     0.195822     7A1     0.245457     3B1     0.289894
       3B2     0.289894     8A1     0.434741     1A2     0.479010
       9A1     0.479010    10A1     0.517552     4B2     0.576048
       4B1     0.576048    11A1     0.780512    12A1     0.820452
       5B1     0.852338     5B2     0.852338     2A2     0.919108
      13A1     0.919108     6B2     0.969068     6B1     0.969068
      14A1     1.014712    15A1     1.347554     7B2     1.368932
       7B1     1.368932     8B1     1.518156     8B2     1.518156
       3A2     1.630679    16A1     1.630679    17A1     1.702589
       9B2     1.730150     9B1     1.730150     4A2     1.785977
      18A1     1.785977    19A1     2.125097    20A1     2.230831
      10B1     2.240774    10B2     2.240774    21A1     3.221796
      11B1     3.555781    11B2     3.555781     5A2     3.907052
      22A1     3.907052    23A1     4.005713    12B2     4.079078
      12B1     4.079078    24A1     4.597907    13B2     4.731597
      13B1     4.731597    14B2     4.932932    14B1     4.932932
      25A1     4.956973     6A2     5.158553    26A1     5.158553
       7A2     5.162883    27A1     5.162883    15B1     5.345643
      15B2     5.345643    16B1     5.986014    16B2     5.986014
      28A1     6.080812    29A1     6.344591    30A1    11.906509

    Final Occupation by Irrep:
             A1    A2    B1    B2
    DOCC [     3,    0,    0,    0 ]
    SOCC [     0,    0,    1,    1 ]

  @UHF Final Energy:   -54.98265531296231

   => Energetics <=

    Nuclear Repulsion Energy =              3.5922645985745829
    One-Electron Energy =                 -81.6416507101775437
    Two-Electron Energy =                  23.0667307986406485
    Total Energy =                        -54.9826553129623079

  UHF NO Occupations:
  HONO-2 :    3 A1 1.9939049
  HONO-1 :    1 B2 1.0000000
  HONO-0 :    1 B1 1.0000000
  LUNO+0 :    4 A1 0.0060951
  LUNO+1 :    5 A1 0.0021175
  LUNO+2 :    6 A1 0.0000027
  LUNO+3 :    7 A1 0.0000000

Computation Completed

Properties will be evaluated at   0.000000,   0.000000,   0.000000 [a0]

Properties computed using the SCF density matrix

  Nuclear Dipole Moment: [e a0]
     X:     0.0000      Y:     0.0000      Z:     0.9020

  Electronic Dipole Moment: [e a0]
     X:     0.0000      Y:     0.0000      Z:    -0.2573

  Dipole Moment: [e a0]
     X:     0.0000      Y:     0.0000      Z:     0.6446     Total:     0.6446

  Dipole Moment: [D]
     X:     0.0000      Y:     0.0000      Z:     1.6385     Total:     1.6385

*** tstop() called on n412-040.vsc4.prov at Tue Jan 26 18:20:41 2021
Module time:
	user time   =      26.10 seconds =       0.43 minutes
	system time =       1.07 seconds =       0.02 minutes
	total time  =          2 seconds =       0.03 minutes
Total time:
	user time   =      26.10 seconds =       0.43 minutes
	system time =       1.07 seconds =       0.02 minutes
	total time  =          2 seconds =       0.03 minutes

*** tstart() called on n412-040.vsc4.prov
*** at Tue Jan 26 18:20:41 2021

	Wfn Parameters:
	--------------------
	Wavefunction         = CCSD_T
	Number of irreps     = 4
	Number of MOs        = 69
	Number of active MOs = 68
	AO-Basis             = NONE
	Semicanonical        = false
	Reference            = UHF
	Print Level          = 1

	IRREP	# MOs	# FZDC	# DOCC	# SOCC	# VIRT	# FZVR
	-----	-----	------	------	------	------	------
	 A1	   30	    1	    2	    0	    27	    0
	 A2	   7	    0	    0	    0	    7	    0
	 B1	   16	    0	    0	    1	    15	    0
	 B2	   16	    0	    0	    1	    15	    0
	Transforming integrals...
	IWL integrals will be deleted.
	(OO|OO)...
	Presorting SO-basis two-electron integrals.
	Sorting File: SO Ints (nn|nn) nbuckets = 1
	Constructing frozen core operators
	Starting AA/AB first half-transformation.
	Sorting AA/AB half-transformed integrals.
	Starting BB first half-transformation.
	Sorting BB half-transformed integrals.
	First half integral transformation complete.
	Starting AA second half-transformation.
	Starting AB second half-transformation.
	Starting BB second half-transformation.
	Two-electron integral transformation complete.
	(OO|OV)...
	Starting AA second half-transformation.
	Starting AB second half-transformation.
	Starting BB second half-transformation.
	Two-electron integral transformation complete.
	(OO|VV)...
	Starting AA second half-transformation.
	Starting AB second half-transformation.
	Starting BB second half-transformation.
	Two-electron integral transformation complete.
	(OV|OO)...
	Starting AA/AB first half-transformation.
	Sorting AA/AB half-transformed integrals.
	Starting BB first half-transformation.
	Sorting BB half-transformed integrals.
	First half integral transformation complete.
	Starting AA second half-transformation.
	Starting AB second half-transformation.
	Starting BB second half-transformation.
	Two-electron integral transformation complete.
	(OV|OV)...
	Starting AA second half-transformation.
	Starting AB second half-transformation.
	Starting BB second half-transformation.
	Two-electron integral transformation complete.
	(OV|VV)...
	Starting AA second half-transformation.
	Starting AB second half-transformation.
	Starting BB second half-transformation.
	Two-electron integral transformation complete.
	(VV|OO)...
	Starting AA/AB first half-transformation.
	Sorting AA/AB half-transformed integrals.
	Starting BB first half-transformation.
	Sorting BB half-transformed integrals.
	First half integral transformation complete.
	Starting AA second half-transformation.
	Starting AB second half-transformation.
	Starting BB second half-transformation.
	Two-electron integral transformation complete.
	(VV|OV)...
	Starting AA second half-transformation.
	Starting AB second half-transformation.
	Starting BB second half-transformation.
	Two-electron integral transformation complete.
	(VV|VV)...
	Starting AA second half-transformation.
	Starting AB second half-transformation.
	Starting BB second half-transformation.
	Two-electron integral transformation complete.
	Frozen core energy     =    -45.75892982534860

	Size of irrep 0 of <AB|CD> integrals:      0.339 (MW) /      2.710 (MB)
	Size of irrep 1 of <AB|CD> integrals:      0.171 (MW) /      1.371 (MB)
	Size of irrep 2 of <AB|CD> integrals:      0.260 (MW) /      2.081 (MB)
	Size of irrep 3 of <AB|CD> integrals:      0.260 (MW) /      2.081 (MB)
	Total:                                     1.030 (MW) /      8.243 (MB)

	Size of irrep 0 of <ab|cd> integrals:      0.375 (MW) /      2.996 (MB)
	Size of irrep 1 of <ab|cd> integrals:      0.198 (MW) /      1.584 (MB)
	Size of irrep 2 of <ab|cd> integrals:      0.296 (MW) /      2.367 (MB)
	Size of irrep 3 of <ab|cd> integrals:      0.296 (MW) /      2.367 (MB)
	Total:                                     1.164 (MW) /      9.316 (MB)

	Size of irrep 0 of <Ab|Cd> integrals:      1.583 (MW) /     12.661 (MB)
	Size of irrep 1 of <Ab|Cd> integrals:      0.736 (MW) /      5.889 (MB)
	Size of irrep 2 of <Ab|Cd> integrals:      1.111 (MW) /      8.887 (MB)
	Size of irrep 3 of <Ab|Cd> integrals:      1.111 (MW) /      8.887 (MB)
	Total:                                     4.541 (MW) /     36.324 (MB)

	Size of irrep 0 of <IA|BC> integrals:      0.103 (MW) /      0.825 (MB)
	Size of irrep 1 of <IA|BC> integrals:      0.036 (MW) /      0.291 (MB)
	Size of irrep 2 of <IA|BC> integrals:      0.065 (MW) /      0.522 (MB)
	Size of irrep 3 of <IA|BC> integrals:      0.065 (MW) /      0.522 (MB)
	Total:                                     0.270 (MW) /      2.161 (MB)

	Size of irrep 0 of <ia|bc> integrals:      0.070 (MW) /      0.557 (MB)
	Size of irrep 1 of <ia|bc> integrals:      0.012 (MW) /      0.100 (MB)
	Size of irrep 2 of <ia|bc> integrals:      0.035 (MW) /      0.279 (MB)
	Size of irrep 3 of <ia|bc> integrals:      0.035 (MW) /      0.279 (MB)
	Total:                                     0.152 (MW) /      1.214 (MB)

	Size of irrep 0 of <Ia|Bc> integrals:      0.108 (MW) /      0.866 (MB)
	Size of irrep 1 of <Ia|Bc> integrals:      0.039 (MW) /      0.316 (MB)
	Size of irrep 2 of <Ia|Bc> integrals:      0.070 (MW) /      0.557 (MB)
	Size of irrep 3 of <Ia|Bc> integrals:      0.070 (MW) /      0.557 (MB)
	Total:                                     0.287 (MW) /      2.294 (MB)

	Size of irrep 0 of <iA|bC> integrals:      0.068 (MW) /      0.543 (MB)
	Size of irrep 1 of <iA|bC> integrals:      0.012 (MW) /      0.096 (MB)
	Size of irrep 2 of <iA|bC> integrals:      0.032 (MW) /      0.253 (MB)
	Size of irrep 3 of <iA|bC> integrals:      0.032 (MW) /      0.253 (MB)
	Total:                                     0.143 (MW) /      1.145 (MB)

	Size of irrep 0 of tIjAb amplitudes:       0.005 (MW) /      0.040 (MB)
	Size of irrep 1 of tIjAb amplitudes:       0.000 (MW) /      0.000 (MB)
	Size of irrep 2 of tIjAb amplitudes:       0.002 (MW) /      0.017 (MB)
	Size of irrep 3 of tIjAb amplitudes:       0.002 (MW) /      0.017 (MB)
	Total:                                     0.009 (MW) /      0.074 (MB)

	Nuclear Rep. energy          =      3.59226459857458
	SCF energy                   =    -54.98265531296231
	One-electron energy          =    -21.34256654129630
	Two-electron (AA) energy     =      3.21337754651855
	Two-electron (BB) energy     =      0.44815866976196
	Two-electron (AB) energy     =      4.86504023882742
	Two-electron energy          =      8.52657645510793
	Reference energy             =    -54.98265531296239

*** tstop() called on n412-040.vsc4.prov at Tue Jan 26 18:20:45 2021
Module time:
	user time   =       0.66 seconds =       0.01 minutes
	system time =       0.55 seconds =       0.01 minutes
	total time  =          4 seconds =       0.07 minutes
Total time:
	user time   =      26.76 seconds =       0.45 minutes
	system time =       1.62 seconds =       0.03 minutes
	total time  =          6 seconds =       0.10 minutes
            **************************
            *                        *
            *        CCENERGY        *
            *                        *
            **************************

    Nuclear Rep. energy (wfn)     =    3.592264598574583
    SCF energy          (wfn)     =  -54.982655312962308
    Reference energy    (file100) =  -54.982655312962386

    Input parameters:
    -----------------
    Wave function   =     CCSD_T
    Reference wfn   =     UHF
    Brueckner       =     No
    Memory (Mbytes) =     250000.0
    Maxiter         =     50
    R_Convergence   =     1.0e-07
    E_Convergence   =     1.0e-06
    Restart         =     Yes
    DIIS            =     Yes
    AO Basis        =     NONE
    ABCD            =     NEW
    Cache Level     =     2
    Cache Type      =     LRU
    Print Level     =     1
    Num. of threads =     48
    # Amps to Print =     10
    Print MP2 Amps? =     No
    Analyze T2 Amps =     No
    Print Pair Ener =     No
    Local CC        =     No
    SCS-MP2         =     False
    SCSN-MP2        =     False
    SCS-CCSD        =     False

MP2 correlation energy -0.1394248292090814
                Solving CC Amplitude Equations
                ------------------------------
  Iter             Energy              RMS        T1Diag      D1Diag    New D1Diag    D2Diag
  ----     ---------------------    ---------   ----------  ----------  ----------   --------
     0        -0.139424829209081    0.000e+00    0.000000    0.000000    0.000000    0.000000
     1        -0.152954260809103    3.770e-02    0.008978    0.000000    0.000000    0.000000
     2        -0.157803621959237    1.485e-02    0.013722    0.000000    0.000000    0.000000
     3        -0.158231003585114    4.893e-03    0.015637    0.000000    0.000000    0.000000
     4        -0.158204031466622    1.809e-03    0.016026    0.000000    0.000000    0.000000
     5        -0.158218354515950    7.668e-04    0.016063    0.000000    0.000000    0.000000
     6        -0.158229138732229    3.007e-04    0.016032    0.000000    0.000000    0.000000
     7        -0.158231307340592    1.094e-04    0.016009    0.000000    0.000000    0.000000
     8        -0.158231547553548    3.623e-05    0.016008    0.000000    0.000000    0.000000
     9        -0.158231172804162    1.498e-05    0.016008    0.000000    0.000000    0.000000
    10        -0.158231230584683    6.115e-06    0.016008    0.000000    0.000000    0.000000
    11        -0.158231229349668    2.339e-06    0.016009    0.000000    0.000000    0.000000
    12        -0.158231260299936    7.716e-07    0.016009    0.000000    0.000000    0.000000
    13        -0.158231268533639    2.907e-07    0.016009    0.000000    0.000000    0.000000
    14        -0.158231270418077    1.052e-07    0.016009    0.000000    0.000000    0.000000
    15        -0.158231270389359    3.639e-08    0.016009    0.000000    0.000000    0.000000

    Iterations converged.

    Largest TIA Amplitudes:
              2  34        -0.0120703655
              3  49        -0.0120703655
              2  35        -0.0092896757
              3  50        -0.0092896756
              3  52        -0.0062868059
              2  37        -0.0062868054
              0   2        -0.0059118683
              0   6         0.0050175785
              1   3        -0.0044878675
              0   7         0.0039965653

    Largest Tia Amplitudes:
              0   4        -0.0103472464
              0   6        -0.0102825203
              0   3         0.0086666724
              0   7        -0.0084595027
              0  10         0.0077974935
              1   6         0.0074176119
              0   2         0.0067850985
              1   8         0.0063200809
              1   3        -0.0050720660
              0  16        -0.0048816543

    Largest TIJAB Amplitudes:
      3   2  52  37        -0.0190364863
      3   2  29  12        -0.0164044954
      2   1  37   8        -0.0157947246
      3   1  52   8        -0.0157947244
      3   2  52  34        -0.0105994850
      3   2  49  37        -0.0105994847
      2   1  37   3        -0.0101339703
      3   1  52   3        -0.0101339702
      3   2  27  12        -0.0099028009
      3   2  29   5        -0.0099028009

    Largest Tijab Amplitudes:
      1   0  40  35         0.0062141950
      1   0  56  51         0.0062141950
      1   0   8   4         0.0061074146
      1   0  40  34         0.0059426841
      1   0  56  50         0.0059426841
      1   0  37  34        -0.0055858031
      1   0  53  50        -0.0055858031
      1   0  37  35        -0.0053782853
      1   0  53  51        -0.0053782853
      1   0  10   8         0.0052857341

    Largest TIjAb Amplitudes:
      1   1   8   8        -0.0287877508
      2   1  37   8        -0.0214586331
      3   1  52   8        -0.0214586329
      1   1   8   3        -0.0170813468
      1   1   6   6        -0.0168591381
      1   1   3   3        -0.0168071365
      1   1   3   8        -0.0165642391
      3   0  29  35         0.0159142366
      2   0  12  35         0.0159142365
      3   0  12  51        -0.0159142365

    SCF energy       (wfn)                    =  -54.982655312962308
    Reference energy (file100)                =  -54.982655312962386

    Opposite-spin MP2 correlation energy      =   -0.106353791991582
    Same-spin MP2 correlation energy          =   -0.033071037217499
    Singles MP2 correlation energy            =   -0.000000000000000
    MP2 correlation energy                    =   -0.139424829209081
      * MP2 total energy                      =  -55.122080142171470

      * CCSD total energy                     =  -55.140886583351744
      * CCSD(T) total energy                     =  -55.145076023826121
*** Psi4 exiting successfully. Buy a developer a beer!
