                               Psi4 1.4a3.dev88

  ==> Input File <==

--------------------------------------------------------------------------
# Any line starting with the # character is a comment line
memory 250000 mb
molecule molecule{
0 3
N          0.0000000000        0.0000000000       -0.0692230310
H          0.0000000000        0.0000000000        0.9619483577
}

set {
  reference uhf
  basis aug-cc-pV(d+d)Z
  scf_type OUT_OF_CORE
  freeze_core true
}

energy('ccsd(t)')
--------------------------------------------------------------------------

    Molecular point group: c2v

    Geometry (in Angstrom), charge = 0, multiplicity = 3:

       Center              X                  Y                   Z               Mass
    ------------   -----------------  -----------------  -----------------  -----------------
         N            0.000000000000     0.000000000000    -0.069232384783    14.003074004430
         H            0.000000000000     0.000000000000     0.961939003917     1.007825032230

  Charge       = 0
  Multiplicity = 3
  Basis Set: AUG-CC-PV(D+D)Z
    Blend: AUG-CC-PV(D+D)Z

    Orbital Energies [Eh]
    ---------------------

    Alpha Occupied:

       1A1   -15.648558     2A1    -1.176734     3A1    -0.588191
       1B1    -0.545951     1B2    -0.545951

    Alpha Virtual:

       4A1     0.035851     2B1     0.154640     2B2     0.154640
       5A1     0.159109     6A1     0.199435     7A1     0.292938
       3B2     0.375727     3B1     0.375727     8A1     0.583487
       1A2     0.654313     9A1     0.654313    10A1     0.706148
       4B2     0.819039     4B1     0.819039    11A1     1.096523
       5B1     1.115086     5B2     1.115086    12A1     1.308068
       6B2     1.865861     6B1     1.865861    13A1     2.095568
      14A1     2.343873    15A1     2.396792     2A2     2.396792
       7B1     2.652780     7B2     2.652780    16A1     3.274351

    Beta Occupied:

       1A1   -15.585999     2A1    -0.925681     3A1    -0.508242

    Beta Virtual:

       4A1     0.038792     1B1     0.076912     1B2     0.076912
       5A1     0.163626     6A1     0.215531     2B2     0.242516
       2B1     0.242516     7A1     0.305221     3B1     0.403029
       3B2     0.403029     8A1     0.609281     1A2     0.717731
       9A1     0.717731    10A1     0.730032     4B1     0.860615
       4B2     0.860615    11A1     1.118354     5B2     1.275383
       5B1     1.275383    12A1     1.350162     6B1     1.882209
       6B2     1.882209    13A1     2.139296    14A1     2.395222
      15A1     2.564854     2A2     2.564854     7B2     2.738271
       7B1     2.738271    16A1     3.310562

    Final Occupation by Irrep:
             A1    A2    B1    B2
    DOCC [     3,    0,    0,    0 ]
    SOCC [     0,    0,    1,    1 ]

  @UHF Final Energy:   -54.97204432593425

   => Energetics <=

    Nuclear Repulsion Energy =              3.5922645985745829
    One-Electron Energy =                 -81.6033099311931664
    Two-Electron Energy =                  23.0390010066843338
    Total Energy =                        -54.9720443259342488

  UHF NO Occupations:
  HONO-2 :    3 A1 1.9941333
  HONO-1 :    1 B1 1.0000000
  HONO-0 :    1 B2 1.0000000
  LUNO+0 :    4 A1 0.0058667
  LUNO+1 :    5 A1 0.0020555
  LUNO+2 :    6 A1 0.0000012
  LUNO+3 :    7 A1 0.0000000

Computation Completed

Properties will be evaluated at   0.000000,   0.000000,   0.000000 [a0]

Properties computed using the SCF density matrix

  Nuclear Dipole Moment: [e a0]
     X:     0.0000      Y:     0.0000      Z:     0.9020

  Electronic Dipole Moment: [e a0]
     X:     0.0000      Y:     0.0000      Z:    -0.2550

  Dipole Moment: [e a0]
     X:     0.0000      Y:     0.0000      Z:     0.6470     Total:     0.6470

  Dipole Moment: [D]
     X:     0.0000      Y:     0.0000      Z:     1.6445     Total:     1.6445

*** tstop() called on n412-039.vsc4.prov at Tue Jan 26 18:31:50 2021
Module time:
	user time   =      14.24 seconds =       0.24 minutes
	system time =       0.96 seconds =       0.02 minutes
	total time  =          1 seconds =       0.02 minutes
Total time:
	user time   =      14.24 seconds =       0.24 minutes
	system time =       0.96 seconds =       0.02 minutes
	total time  =          1 seconds =       0.02 minutes

*** tstart() called on n412-039.vsc4.prov
*** at Tue Jan 26 18:31:50 2021

	Wfn Parameters:
	--------------------
	Wavefunction         = CCSD_T
	Number of irreps     = 4
	Number of MOs        = 32
	Number of active MOs = 31
	AO-Basis             = NONE
	Semicanonical        = false
	Reference            = UHF
	Print Level          = 1

	IRREP	# MOs	# FZDC	# DOCC	# SOCC	# VIRT	# FZVR
	-----	-----	------	------	------	------	------
	 A1	   16	    1	    2	    0	    13	    0
	 A2	   2	    0	    0	    0	    2	    0
	 B1	   7	    0	    0	    1	    6	    0
	 B2	   7	    0	    0	    1	    6	    0
	Transforming integrals...
	IWL integrals will be deleted.
	(OO|OO)...
	Presorting SO-basis two-electron integrals.
	Sorting File: SO Ints (nn|nn) nbuckets = 1
	Constructing frozen core operators
	Starting AA/AB first half-transformation.
	Sorting AA/AB half-transformed integrals.
	Starting BB first half-transformation.
	Sorting BB half-transformed integrals.
	First half integral transformation complete.
	Starting AA second half-transformation.
	Starting AB second half-transformation.
	Starting BB second half-transformation.
	Two-electron integral transformation complete.
	(OO|OV)...
	Starting AA second half-transformation.
	Starting AB second half-transformation.
	Starting BB second half-transformation.
	Two-electron integral transformation complete.
	(OO|VV)...
	Starting AA second half-transformation.
	Starting AB second half-transformation.
	Starting BB second half-transformation.
	Two-electron integral transformation complete.
	(OV|OO)...
	Starting AA/AB first half-transformation.
	Sorting AA/AB half-transformed integrals.
	Starting BB first half-transformation.
	Sorting BB half-transformed integrals.
	First half integral transformation complete.
	Starting AA second half-transformation.
	Starting AB second half-transformation.
	Starting BB second half-transformation.
	Two-electron integral transformation complete.
	(OV|OV)...
	Starting AA second half-transformation.
	Starting AB second half-transformation.
	Starting BB second half-transformation.
	Two-electron integral transformation complete.
	(OV|VV)...
	Starting AA second half-transformation.
	Starting AB second half-transformation.
	Starting BB second half-transformation.
	Two-electron integral transformation complete.
	(VV|OO)...
	Starting AA/AB first half-transformation.
	Sorting AA/AB half-transformed integrals.
	Starting BB first half-transformation.
	Sorting BB half-transformed integrals.
	First half integral transformation complete.
	Starting AA second half-transformation.
	Starting AB second half-transformation.
	Starting BB second half-transformation.
	Two-electron integral transformation complete.
	(VV|OV)...
	Starting AA second half-transformation.
	Starting AB second half-transformation.
	Starting BB second half-transformation.
	Two-electron integral transformation complete.
	(VV|VV)...
	Starting AA second half-transformation.
	Starting AB second half-transformation.
	Starting BB second half-transformation.
	Two-electron integral transformation complete.
	Frozen core energy     =    -45.75864170965206

	Size of irrep 0 of <AB|CD> integrals:      0.012 (MW) /      0.095 (MB)
	Size of irrep 1 of <AB|CD> integrals:      0.004 (MW) /      0.031 (MB)
	Size of irrep 2 of <AB|CD> integrals:      0.008 (MW) /      0.065 (MB)
	Size of irrep 3 of <AB|CD> integrals:      0.008 (MW) /      0.065 (MB)
	Total:                                     0.032 (MW) /      0.255 (MB)

	Size of irrep 0 of <ab|cd> integrals:      0.015 (MW) /      0.117 (MB)
	Size of irrep 1 of <ab|cd> integrals:      0.006 (MW) /      0.045 (MB)
	Size of irrep 2 of <ab|cd> integrals:      0.011 (MW) /      0.088 (MB)
	Size of irrep 3 of <ab|cd> integrals:      0.011 (MW) /      0.088 (MB)
	Total:                                     0.042 (MW) /      0.339 (MB)

	Size of irrep 0 of <Ab|Cd> integrals:      0.066 (MW) /      0.528 (MB)
	Size of irrep 1 of <Ab|Cd> integrals:      0.018 (MW) /      0.148 (MB)
	Size of irrep 2 of <Ab|Cd> integrals:      0.038 (MW) /      0.304 (MB)
	Size of irrep 3 of <Ab|Cd> integrals:      0.038 (MW) /      0.304 (MB)
	Total:                                     0.161 (MW) /      1.285 (MB)

	Size of irrep 0 of <IA|BC> integrals:      0.009 (MW) /      0.074 (MB)
	Size of irrep 1 of <IA|BC> integrals:      0.002 (MW) /      0.016 (MB)
	Size of irrep 2 of <IA|BC> integrals:      0.005 (MW) /      0.039 (MB)
	Size of irrep 3 of <IA|BC> integrals:      0.005 (MW) /      0.039 (MB)
	Total:                                     0.021 (MW) /      0.168 (MB)

	Size of irrep 0 of <ia|bc> integrals:      0.007 (MW) /      0.056 (MB)
	Size of irrep 1 of <ia|bc> integrals:      0.001 (MW) /      0.005 (MB)
	Size of irrep 2 of <ia|bc> integrals:      0.003 (MW) /      0.024 (MB)
	Size of irrep 3 of <ia|bc> integrals:      0.003 (MW) /      0.024 (MB)
	Total:                                     0.014 (MW) /      0.108 (MB)

	Size of irrep 0 of <Ia|Bc> integrals:      0.010 (MW) /      0.082 (MB)
	Size of irrep 1 of <Ia|Bc> integrals:      0.002 (MW) /      0.020 (MB)
	Size of irrep 2 of <Ia|Bc> integrals:      0.006 (MW) /      0.045 (MB)
	Size of irrep 3 of <Ia|Bc> integrals:      0.006 (MW) /      0.045 (MB)
	Total:                                     0.024 (MW) /      0.192 (MB)

	Size of irrep 0 of <iA|bC> integrals:      0.007 (MW) /      0.053 (MB)
	Size of irrep 1 of <iA|bC> integrals:      0.001 (MW) /      0.004 (MB)
	Size of irrep 2 of <iA|bC> integrals:      0.002 (MW) /      0.019 (MB)
	Size of irrep 3 of <iA|bC> integrals:      0.002 (MW) /      0.019 (MB)
	Total:                                     0.012 (MW) /      0.095 (MB)

	Size of irrep 0 of tIjAb amplitudes:       0.001 (MW) /      0.008 (MB)
	Size of irrep 1 of tIjAb amplitudes:       0.000 (MW) /      0.000 (MB)
	Size of irrep 2 of tIjAb amplitudes:       0.000 (MW) /      0.003 (MB)
	Size of irrep 3 of tIjAb amplitudes:       0.000 (MW) /      0.003 (MB)
	Total:                                     0.002 (MW) /      0.014 (MB)

	Nuclear Rep. energy          =      3.59226459857458
	SCF energy                   =    -54.97204432593425
	One-electron energy          =    -21.32058405047975
	Two-electron (AA) energy     =      3.20770307232223
	Two-electron (BB) energy     =      0.44786662682607
	Two-electron (AB) energy     =      4.85934713647476
	Two-electron energy          =      8.51491683562306
	Reference energy             =    -54.97204432593416

*** tstop() called on n412-039.vsc4.prov at Tue Jan 26 18:31:50 2021
Module time:
	user time   =       0.05 seconds =       0.00 minutes
	system time =       0.11 seconds =       0.00 minutes
	total time  =          0 seconds =       0.00 minutes
Total time:
	user time   =      14.29 seconds =       0.24 minutes
	system time =       1.07 seconds =       0.02 minutes
	total time  =          1 seconds =       0.02 minutes
            **************************
            *                        *
            *        CCENERGY        *
            *                        *
            **************************

    Nuclear Rep. energy (wfn)     =    3.592264598574583
    SCF energy          (wfn)     =  -54.972044325934249
    Reference energy    (file100) =  -54.972044325934164

    Input parameters:
    -----------------
    Wave function   =     CCSD_T
    Reference wfn   =     UHF
    Brueckner       =     No
    Memory (Mbytes) =     250000.0
    Maxiter         =     50
    R_Convergence   =     1.0e-07
    E_Convergence   =     1.0e-06
    Restart         =     Yes
    DIIS            =     Yes
    AO Basis        =     NONE
    ABCD            =     NEW
    Cache Level     =     2
    Cache Type      =     LRU
    Print Level     =     1
    Num. of threads =     48
    # Amps to Print =     10
    Print MP2 Amps? =     No
    Analyze T2 Amps =     No
    Print Pair Ener =     No
    Local CC        =     No
    SCS-MP2         =     False
    SCSN-MP2        =     False
    SCS-CCSD        =     False

MP2 correlation energy -0.1104361577211231
                Solving CC Amplitude Equations
                ------------------------------
  Iter             Energy              RMS        T1Diag      D1Diag    New D1Diag    D2Diag
  ----     ---------------------    ---------   ----------  ----------  ----------   --------
     0        -0.110436157721123    0.000e+00    0.000000    0.000000    0.000000    0.000000
     1        -0.125397275796866    4.056e-02    0.009668    0.000000    0.000000    0.000000
     2        -0.130406354145767    1.570e-02    0.014600    0.000000    0.000000    0.000000
     3        -0.130961418888359    5.278e-03    0.016660    0.000000    0.000000    0.000000
     4        -0.130932025014729    1.964e-03    0.016973    0.000000    0.000000    0.000000
     5        -0.130954427601579    8.766e-04    0.016984    0.000000    0.000000    0.000000
     6        -0.130968774172181    3.062e-04    0.016950    0.000000    0.000000    0.000000
     7        -0.130969854904776    1.133e-04    0.016927    0.000000    0.000000    0.000000
     8        -0.130969920169791    4.054e-05    0.016927    0.000000    0.000000    0.000000
     9        -0.130969712559733    1.549e-05    0.016928    0.000000    0.000000    0.000000
    10        -0.130969682278066    6.401e-06    0.016928    0.000000    0.000000    0.000000
    11        -0.130969678282849    2.449e-06    0.016928    0.000000    0.000000    0.000000
    12        -0.130969704260809    8.511e-07    0.016928    0.000000    0.000000    0.000000
    13        -0.130969703417545    2.698e-07    0.016928    0.000000    0.000000    0.000000
    14        -0.130969703891093    9.550e-08    0.016928    0.000000    0.000000    0.000000

    Iterations converged.

    Largest TIA Amplitudes:
              3  21        -0.0164981283
              2  15        -0.0164981281
              3  22        -0.0102106851
              2  16        -0.0102106850
              1   3         0.0081996277
              1   1         0.0072595730
              0   2        -0.0071298169
              0   6        -0.0053855381
              1  10        -0.0053150257
              2  18        -0.0037604465

    Largest Tia Amplitudes:
              0   6        -0.0119852364
              0   3        -0.0118686979
              1   3        -0.0106501944
              0  10        -0.0078085350
              1   6        -0.0064023551
              0   7        -0.0050431102
              0   4         0.0045736178
              1   8        -0.0044899364
              0   2        -0.0039441422
              1   7         0.0039028303

    Largest TIJAB Amplitudes:
      3   2  24  18        -0.0233939233
      3   1  24   7         0.0169862505
      2   1  18   7         0.0169862505
      3   2  13   5        -0.0159501017
      3   2  14  11        -0.0142757960
      3   1  24   3         0.0137365571
      2   1  18   3         0.0137365571
      3   2  21  18        -0.0130580937
      3   2  24  15        -0.0130580933
      3   1  22   3         0.0120294992

    Largest Tijab Amplitudes:
      1   0  25  22         0.0067246453
      1   0  18  15         0.0067246453
      1   0  18  16         0.0065535946
      1   0  25  23         0.0065535946
      1   0  17  16        -0.0059686343
      1   0  24  23        -0.0059686343
      1   0  24  22        -0.0058652457
      1   0  17  15        -0.0058652457
      1   0   6   3        -0.0051004671
      1   0  10   7        -0.0049939986

    Largest TIjAb Amplitudes:
      1   1   3   3         0.0330332896
      1   1   7   7         0.0294061718
      1   1   6   6         0.0282285221
      1   1   3   7         0.0228501338
      1   1   3   6         0.0226137971
      1   1   6   3         0.0221062098
      1   1   7   3         0.0216052186
      3   1  24   7        -0.0201407804
      2   1  18   7        -0.0201407804
      3   0   5  22         0.0171187594

    SCF energy       (wfn)                    =  -54.972044325934249
    Reference energy (file100)                =  -54.972044325934164

    Opposite-spin MP2 correlation energy      =   -0.083657126114348
    Same-spin MP2 correlation energy          =   -0.026779031606776
    Singles MP2 correlation energy            =   -0.000000000000000
    MP2 correlation energy                    =   -0.110436157721123
      * MP2 total energy                      =  -55.082480483655289

    Opposite-spin CCSD correlation energy     =   -0.103208851191600
    Same-spin CCSD correlation energy         =   -0.027760852699494
    Singles CCSD correlation energy           =    0.000000000000000
    CCSD correlation energy                   =   -0.130969703891093
      * CCSD total energy                     =  -55.103014029825260

            **************************
            *                        *
            *        CCTRIPLES       *
            *                        *
            **************************

    Wave function   =    CCSD_T
    Reference wfn   =      UHF

    Nuclear Rep. energy (wfn)                =    3.592264598574583
    SCF energy          (wfn)                =  -54.972044325934249
    Reference energy    (file100)            =  -54.972044325934164
    CCSD energy         (file100)            =   -0.130969703891093
    Total CCSD energy   (file100)            =  -55.103014029825260

    Number of ijk index combinations:
    Spin Case AAA:                                   4
    Spin Case BBB:                                   0
    Spin Case AAB:                                  12

      * CCSD(T) total energy                     =  -55.105464567028747
*** Psi4 exiting successfully. Buy a developer a beer!
