                               Psi4 1.2a1.dev938

  ==> Input File <==

--------------------------------------------------------------------------
# Any line starting with the # character is a comment line
memory 250000 mb
molecule molecule{
0 4
N          0.0000000000        0.0000000000        0.0000000000
}

set {
  reference uhf
  basis aug-cc-pv(t+d)z
  scf_type OUT_OF_CORE
  freeze_core true
}

energy('ccsd')
--------------------------------------------------------------------------

    Molecular point group: d2h
    Geometry (in Angstrom), charge = 0, multiplicity = 4:

       Center              X                  Y                   Z               Mass
    ------------   -----------------  -----------------  -----------------  -----------------
           N          0.000000000000     0.000000000000     0.000000000000    14.003074004780

  Charge       = 0
  Multiplicity = 4
  Basis Set: AUG-CC-PV(T+D)Z
    Blend: AUG-CC-PV(T+D)Z

    Orbital Energies (a.u.)
    -----------------------

    Alpha Occupied:

       1Ag   -15.672389     2Ag    -1.163601     1B2u   -0.570741
       1B1u   -0.570741     1B3u   -0.570741

    Alpha Virtual:

       3Ag     0.120646     2B2u    0.129723     2B1u    0.129723
       2B3u    0.129723     1B1g    0.449982     1B3g    0.449982
       4Ag     0.449982     1B2g    0.449982     5Ag     0.449982
       3B2u    0.726909     3B3u    0.726909     3B1u    0.726909
       6Ag     0.960620     4B3u    1.479358     4B2u    1.479358
       5B3u    1.479358     4B1u    1.479358     5B2u    1.479358
       1Au     1.479358     5B1u    1.479358     7Ag     1.491509
       2B3g    1.491509     2B1g    1.491509     2B2g    1.491509
       8Ag     1.491509     6B2u    3.275362     6B3u    3.275362
       6B1u    3.275362     2Au     4.828129     7B3u    4.828129
       7B2u    4.828129     8B3u    4.828129     7B1u    4.828129
       8B1u    4.828129     8B2u    4.828129     3B3g    4.975054
       9Ag     4.975054     3B2g    4.975054    10Ag     4.975054
       3B1g    4.975054    11Ag     6.284387

    Beta Occupied:

       1Ag   -15.582710     2Ag    -0.726945

    Beta Virtual:

       1B1u    0.077007     1B3u    0.077007     1B2u    0.077007
       3Ag     0.140629     2B2u    0.225780     2B3u    0.225780
       2B1u    0.225780     1B1g    0.478500     1B3g    0.478500
       4Ag     0.478500     1B2g    0.478500     5Ag     0.478500
       3B2u    0.880707     3B3u    0.880707     3B1u    0.880707
       6Ag     1.064263     4B2u    1.513236     4B3u    1.513236
       5B3u    1.513236     1Au     1.513236     4B1u    1.513236
       5B2u    1.513236     5B1u    1.513236     7Ag     1.627346
       8Ag     1.627346     2B2g    1.627346     2B1g    1.627346
       2B3g    1.627346     6B2u    3.432809     6B3u    3.432809
       6B1u    3.432809     7B3u    4.927476     2Au     4.927476
       7B2u    4.927476     8B3u    4.927476     7B1u    4.927476
       8B1u    4.927476     8B2u    4.927476     9Ag     5.146726
       3B3g    5.146726     3B2g    5.146726    10Ag     5.146726
       3B1g    5.146726    11Ag     6.389716

    Final Occupation by Irrep:
             Ag   B1g   B2g   B3g    Au   B1u   B2u   B3u
    DOCC [     2,    0,    0,    0,    0,    0,    0,    0 ]
    SOCC [     0,    0,    0,    0,    0,    1,    1,    1 ]

  Energy converged.

  @UHF Final Energy:   -54.40116224025208

   => Energetics <=

    Nuclear Repulsion Energy =              0.0000000000000000
    One-Electron Energy =                 -73.9444560097485351
    Two-Electron Energy =                  19.5432937694964508
    PCM Polarization Energy =               0.0000000000000000
    Total Energy =                        -54.4011622402520842

    Alert: EFP and PCM quantities not currently incorporated into SCF psivars.
  UHF NO Occupations:
  HONO-2 :    1B3u 1.0000000
  HONO-1 :    1B2u 1.0000000
  HONO-0 :    1B1u 1.0000000
  LUNO+0 :    3 Ag 0.0038107
  LUNO+1 :    4 Ag 0.0000041
  LUNO+2 :    2B3u 0.0000000
  LUNO+3 :    2B2u 0.0000000

Properties will be evaluated at   0.000000,   0.000000,   0.000000 Bohr

Properties computed using the SCF density matrix

  Nuclear Dipole Moment: (a.u.)
     X:     0.0000      Y:     0.0000      Z:     0.0000

  Electronic Dipole Moment: (a.u.)
     X:     0.0000      Y:     0.0000      Z:     0.0000

  Dipole Moment: (a.u.)
     X:     0.0000      Y:     0.0000      Z:     0.0000     Total:     0.0000

  Dipole Moment: (Debye)
     X:     0.0000      Y:     0.0000      Z:     0.0000     Total:     0.0000

*** tstop() called on cqc05 at Thu Aug 20 20:11:19 2020
Module time:
	user time   =       0.39 seconds =       0.01 minutes
	system time =       0.01 seconds =       0.00 minutes
	total time  =          0 seconds =       0.00 minutes
Total time:
	user time   =       0.39 seconds =       0.01 minutes
	system time =       0.01 seconds =       0.00 minutes
	total time  =          0 seconds =       0.00 minutes

*** tstart() called on cqc05
*** at Thu Aug 20 20:11:19 2020

	Wfn Parameters:
	--------------------
	Wavefunction         = CCSD
	Number of irreps     = 8
	Number of MOs        = 46
	Number of active MOs = 45
	AO-Basis             = NONE
	Semicanonical        = false
	Reference            = UHF
	Print Level          = 1

	IRREP	# MOs	# FZDC	# DOCC	# SOCC	# VIRT	# FZVR
	-----	-----	------	------	------	------	------
	 Ag	   11	    1	    1	    0	    9	    0
	 B1g	   3	    0	    0	    0	    3	    0
	 B2g	   3	    0	    0	    0	    3	    0
	 B3g	   3	    0	    0	    0	    3	    0
	 Au	   2	    0	    0	    0	    2	    0
	 B1u	   8	    0	    0	    1	    7	    0
	 B2u	   8	    0	    0	    1	    7	    0
	 B3u	   8	    0	    0	    1	    7	    0
	Transforming integrals...
	IWL integrals will be deleted.
	(OO|OO)...
	Presorting SO-basis two-electron integrals.
	Sorting File: SO Ints (nn|nn) nbuckets = 1
	Transforming the one-electron integrals and constructing Fock matrices
	Starting AA/AB first half-transformation.
	Sorting AA/AB half-transformed integrals.
	Starting BB first half-transformation.
	Sorting BB half-transformed integrals.
	First half integral transformation complete.
	Starting AA second half-transformation.
	Starting AB second half-transformation.
	Starting BB second half-transformation.
	Two-electron integral transformation complete.
	(OO|OV)...
	Starting AA second half-transformation.
	Starting AB second half-transformation.
	Starting BB second half-transformation.
	Two-electron integral transformation complete.
	(OO|VV)...
	Starting AA second half-transformation.
	Starting AB second half-transformation.
	Starting BB second half-transformation.
	Two-electron integral transformation complete.
	(OV|OO)...
	Starting AA/AB first half-transformation.
	Sorting AA/AB half-transformed integrals.
	Starting BB first half-transformation.
	Sorting BB half-transformed integrals.
	First half integral transformation complete.
	Starting AA second half-transformation.
	Starting AB second half-transformation.
	Starting BB second half-transformation.
	Two-electron integral transformation complete.
	(OV|OV)...
	Starting AA second half-transformation.
	Starting AB second half-transformation.
	Starting BB second half-transformation.
	Two-electron integral transformation complete.
	(OV|VV)...
	Starting AA second half-transformation.
	Starting AB second half-transformation.
	Starting BB second half-transformation.
	Two-electron integral transformation complete.
	(VV|OO)...
	Starting AA/AB first half-transformation.
	Sorting AA/AB half-transformed integrals.
	Starting BB first half-transformation.
	Sorting BB half-transformed integrals.
	First half integral transformation complete.
	Starting AA second half-transformation.
	Starting AB second half-transformation.
	Starting BB second half-transformation.
	Two-electron integral transformation complete.
	(VV|OV)...
	Starting AA second half-transformation.
	Starting AB second half-transformation.
	Starting BB second half-transformation.
	Two-electron integral transformation complete.
	(VV|VV)...
	Starting AA second half-transformation.
	Starting AB second half-transformation.
	Starting BB second half-transformation.
	Two-electron integral transformation complete.
	Frozen core energy     =    -44.73233224841088

	Size of irrep 0 of <AB|CD> integrals:      0.012 (MW) /      0.095 (MB)
	Size of irrep 1 of <AB|CD> integrals:      0.010 (MW) /      0.078 (MB)
	Size of irrep 2 of <AB|CD> integrals:      0.010 (MW) /      0.078 (MB)
	Size of irrep 3 of <AB|CD> integrals:      0.010 (MW) /      0.078 (MB)
	Size of irrep 4 of <AB|CD> integrals:      0.007 (MW) /      0.052 (MB)
	Size of irrep 5 of <AB|CD> integrals:      0.012 (MW) /      0.099 (MB)
	Size of irrep 6 of <AB|CD> integrals:      0.012 (MW) /      0.099 (MB)
	Size of irrep 7 of <AB|CD> integrals:      0.012 (MW) /      0.099 (MB)
	Total:                                     0.085 (MW) /      0.678 (MB)

	Size of irrep 0 of <ab|cd> integrals:      0.017 (MW) /      0.135 (MB)
	Size of irrep 1 of <ab|cd> integrals:      0.013 (MW) /      0.108 (MB)
	Size of irrep 2 of <ab|cd> integrals:      0.013 (MW) /      0.108 (MB)
	Size of irrep 3 of <ab|cd> integrals:      0.013 (MW) /      0.108 (MB)
	Size of irrep 4 of <ab|cd> integrals:      0.008 (MW) /      0.065 (MB)
	Size of irrep 5 of <ab|cd> integrals:      0.016 (MW) /      0.127 (MB)
	Size of irrep 6 of <ab|cd> integrals:      0.016 (MW) /      0.127 (MB)
	Size of irrep 7 of <ab|cd> integrals:      0.016 (MW) /      0.127 (MB)
	Total:                                     0.113 (MW) /      0.904 (MB)

	Size of irrep 0 of <Ab|Cd> integrals:      0.078 (MW) /      0.627 (MB)
	Size of irrep 1 of <Ab|Cd> integrals:      0.046 (MW) /      0.366 (MB)
	Size of irrep 2 of <Ab|Cd> integrals:      0.046 (MW) /      0.366 (MB)
	Size of irrep 3 of <Ab|Cd> integrals:      0.046 (MW) /      0.366 (MB)
	Size of irrep 4 of <Ab|Cd> integrals:      0.029 (MW) /      0.234 (MB)
	Size of irrep 5 of <Ab|Cd> integrals:      0.056 (MW) /      0.449 (MB)
	Size of irrep 6 of <Ab|Cd> integrals:      0.056 (MW) /      0.449 (MB)
	Size of irrep 7 of <Ab|Cd> integrals:      0.056 (MW) /      0.449 (MB)
	Total:                                     0.414 (MW) /      3.308 (MB)

	Size of irrep 0 of <IA|BC> integrals:      0.008 (MW) /      0.062 (MB)
	Size of irrep 1 of <IA|BC> integrals:      0.004 (MW) /      0.030 (MB)
	Size of irrep 2 of <IA|BC> integrals:      0.004 (MW) /      0.030 (MB)
	Size of irrep 3 of <IA|BC> integrals:      0.004 (MW) /      0.030 (MB)
	Size of irrep 4 of <IA|BC> integrals:      0.002 (MW) /      0.014 (MB)
	Size of irrep 5 of <IA|BC> integrals:      0.005 (MW) /      0.039 (MB)
	Size of irrep 6 of <IA|BC> integrals:      0.005 (MW) /      0.039 (MB)
	Size of irrep 7 of <IA|BC> integrals:      0.005 (MW) /      0.039 (MB)
	Total:                                     0.035 (MW) /      0.284 (MB)

	Size of irrep 0 of <ia|bc> integrals:      0.003 (MW) /      0.022 (MB)
	Size of irrep 1 of <ia|bc> integrals:      0.001 (MW) /      0.006 (MB)
	Size of irrep 2 of <ia|bc> integrals:      0.001 (MW) /      0.006 (MB)
	Size of irrep 3 of <ia|bc> integrals:      0.001 (MW) /      0.006 (MB)
	Size of irrep 4 of <ia|bc> integrals:      0.000 (MW) /      0.003 (MB)
	Size of irrep 5 of <ia|bc> integrals:      0.002 (MW) /      0.016 (MB)
	Size of irrep 6 of <ia|bc> integrals:      0.002 (MW) /      0.016 (MB)
	Size of irrep 7 of <ia|bc> integrals:      0.002 (MW) /      0.016 (MB)
	Total:                                     0.011 (MW) /      0.090 (MB)

	Size of irrep 0 of <Ia|Bc> integrals:      0.009 (MW) /      0.074 (MB)
	Size of irrep 1 of <Ia|Bc> integrals:      0.004 (MW) /      0.036 (MB)
	Size of irrep 2 of <Ia|Bc> integrals:      0.004 (MW) /      0.036 (MB)
	Size of irrep 3 of <Ia|Bc> integrals:      0.004 (MW) /      0.036 (MB)
	Size of irrep 4 of <Ia|Bc> integrals:      0.002 (MW) /      0.015 (MB)
	Size of irrep 5 of <Ia|Bc> integrals:      0.005 (MW) /      0.044 (MB)
	Size of irrep 6 of <Ia|Bc> integrals:      0.005 (MW) /      0.044 (MB)
	Size of irrep 7 of <Ia|Bc> integrals:      0.005 (MW) /      0.044 (MB)
	Total:                                     0.041 (MW) /      0.328 (MB)

	Size of irrep 0 of <iA|bC> integrals:      0.003 (MW) /      0.020 (MB)
	Size of irrep 1 of <iA|bC> integrals:      0.001 (MW) /      0.005 (MB)
	Size of irrep 2 of <iA|bC> integrals:      0.001 (MW) /      0.005 (MB)
	Size of irrep 3 of <iA|bC> integrals:      0.001 (MW) /      0.005 (MB)
	Size of irrep 4 of <iA|bC> integrals:      0.000 (MW) /      0.003 (MB)
	Size of irrep 5 of <iA|bC> integrals:      0.002 (MW) /      0.013 (MB)
	Size of irrep 6 of <iA|bC> integrals:      0.002 (MW) /      0.013 (MB)
	Size of irrep 7 of <iA|bC> integrals:      0.002 (MW) /      0.013 (MB)
	Total:                                     0.010 (MW) /      0.078 (MB)

	Size of irrep 0 of tIjAb amplitudes:       0.000 (MW) /      0.002 (MB)
	Size of irrep 1 of tIjAb amplitudes:       0.000 (MW) /      0.000 (MB)
	Size of irrep 2 of tIjAb amplitudes:       0.000 (MW) /      0.000 (MB)
	Size of irrep 3 of tIjAb amplitudes:       0.000 (MW) /      0.000 (MB)
	Size of irrep 4 of tIjAb amplitudes:       0.000 (MW) /      0.000 (MB)
	Size of irrep 5 of tIjAb amplitudes:       0.000 (MW) /      0.002 (MB)
	Size of irrep 6 of tIjAb amplitudes:       0.000 (MW) /      0.002 (MB)
	Size of irrep 7 of tIjAb amplitudes:       0.000 (MW) /      0.002 (MB)
	Total:                                     0.001 (MW) /      0.008 (MB)

	Nuclear Rep. energy          =      0.00000000000000
	SCF energy                   =    -54.40116224025208
	One-electron energy          =    -15.73489004628836
	Two-electron (AA) energy     =      3.42205107642164
	Two-electron (BB) energy     =      0.00000000000000
	Two-electron (AB) energy     =      2.64400897802550
	Two-electron energy          =      6.06606005444714
	Reference energy             =    -54.40116224025210

*** tstop() called on cqc05 at Thu Aug 20 20:11:20 2020
Module time:
	user time   =       0.11 seconds =       0.00 minutes
	system time =       0.05 seconds =       0.00 minutes
	total time  =          1 seconds =       0.02 minutes
Total time:
	user time   =       0.50 seconds =       0.01 minutes
	system time =       0.06 seconds =       0.00 minutes
	total time  =          1 seconds =       0.02 minutes

*** tstart() called on cqc05
*** at Thu Aug 20 20:11:20 2020

            **************************
            *                        *
            *        CCENERGY        *
            *                        *
            **************************

    Nuclear Rep. energy (wfn)     =    0.000000000000000
    SCF energy          (wfn)     =  -54.401162240252084
    Reference energy    (file100) =  -54.401162240252098

    Input parameters:
    -----------------
    Wave function   =     CCSD
    Reference wfn   =     UHF
    Brueckner       =     No
    Memory (Mbytes) =     250000.0
    Maxiter         =     50
    R_Convergence   =     1.0e-07
    E_Convergence   =     1.0e-06
    Restart         =     Yes
    DIIS            =     Yes
    AO Basis        =     NONE
    ABCD            =     NEW
    Cache Level     =     2
    Cache Type      =     LRU
    Print Level     =     1
    Num. of threads =     4
    # Amps to Print =     10
    Print MP2 Amps? =     No
    Analyze T2 Amps =     No
    Print Pair Ener =     No
    Local CC        =     No
    SCS-MP2         =     False
    SCSN-MP2        =     False
    SCS-CCSD        =     False

MP2 correlation energy -0.0974850360804354
                Solving CC Amplitude Equations
                ------------------------------
  Iter             Energy              RMS        T1Diag      D1Diag    New D1Diag    D2Diag
  ----     ---------------------    ---------   ----------  ----------  ----------   --------
     0        -0.097485036080435    0.000e+00    0.000000    0.000000    0.000000    0.000000
     1        -0.109593009161486    3.046e-02    0.004658    0.000000    0.000000    0.000000
     2        -0.113003565281309    1.135e-02    0.008169    0.000000    0.000000    0.000000
     3        -0.113215815312207    3.264e-03    0.009734    0.000000    0.000000    0.000000
     4        -0.113197945304962    8.183e-04    0.009913    0.000000    0.000000    0.000000
     5        -0.113201899042349    2.970e-04    0.009934    0.000000    0.000000    0.000000
     6        -0.113205298998393    8.500e-05    0.009916    0.000000    0.000000    0.000000
     7        -0.113205565545650    1.439e-05    0.009912    0.000000    0.000000    0.000000
     8        -0.113205490532697    2.910e-06    0.009912    0.000000    0.000000    0.000000
     9        -0.113205527765138    6.813e-07    0.009912    0.000000    0.000000    0.000000
    10        -0.113205527663355    9.769e-08    0.009912    0.000000    0.000000    0.000000
    10        -0.113205527663355    9.769e-08    0.009912    0.000000    0.000000    0.000000

    Iterations converged.

    CCSD corr. energy   =   -0.113205527663355
    PPL corr. energy    =    0.024999594425532
    OS PPL corr. energy =    0.019964044009065
    SS PPL corr. energy =    0.005035550416467
    Largest TIA Amplitudes:
              1  20        -0.0079440680
              2  27        -0.0079440680
              3  34        -0.0079440680
              0   0         0.0070603043
              1  21        -0.0041480543
              2  28        -0.0041480543
              3  35        -0.0041480543
              0   3        -0.0028417316
              1  24         0.0019820651
              2  31         0.0019820651

    Largest Tia Amplitudes:
              0   3        -0.0101246283
              0   0         0.0084776539
              0   8         0.0023193818

    Largest TIJAB Amplitudes:
      3   2  35  28        -0.0292728277
      3   1  35  21        -0.0292728277
      2   1  28  21        -0.0292728277
      3   2  10   4         0.0202570780
      3   1  13   5        -0.0186229160
      1   0  21   3        -0.0165393261
      2   0  28   3        -0.0165393261
      3   0  35   3        -0.0165393261
      2   1  16   5        -0.0164633723
      3   2  34  28        -0.0151740612

    Largest TIjAb Amplitudes:
      1   0   5  21         0.0357855754
      2   0   4  29        -0.0328987115
      1   0  13  37         0.0311668278
      1   0  16  29         0.0311668278
      2   0  10  37         0.0311668278
      2   0  16  21         0.0311668278
      3   0  10  29         0.0311668278
      3   0  13  21         0.0311668278
      1   0  21   3         0.0297085136
      2   0  28   3         0.0297085136

    SCF energy       (wfn)                    =  -54.401162240252084

      * MP2 total energy                      =  -54.498647276332534
      * CCSD total energy                     =  -54.514367767915452
*** Psi4 exiting successfully. Buy a developer a beer!
