                               Psi4 1.2a1.dev938

  ==> Input File <==

--------------------------------------------------------------------------
# Any line starting with the # character is a comment line
memory 250000 mb
molecule molecule{
0 4
N          0.0000000000        0.0000000000        0.0000000000
}

set {
  reference uhf
  basis aug-cc-pv(q+d)z
  scf_type OUT_OF_CORE
  freeze_core true
}

energy('ccsd')
--------------------------------------------------------------------------

    Molecular point group: d2h
    Geometry (in Angstrom), charge = 0, multiplicity = 4:

       Center              X                  Y                   Z               Mass
    ------------   -----------------  -----------------  -----------------  -----------------
           N          0.000000000000     0.000000000000     0.000000000000    14.003074004780

  Charge       = 0
  Multiplicity = 4
  Basis Set: AUG-CC-PV(Q+D)Z
    Blend: AUG-CC-PV(Q+D)Z

    Orbital Energies (a.u.)
    -----------------------

    Alpha Occupied:

       1Ag   -15.671465     2Ag    -1.163183     1B1u   -0.570898
       1B3u   -0.570898     1B2u   -0.570898

    Alpha Virtual:

       3Ag     0.105889     2B1u    0.111982     2B3u    0.111982
       2B2u    0.111982     1B1g    0.339851     1B3g    0.339851
       1B2g    0.339851     4Ag     0.339851     5Ag     0.339851
       3B2u    0.572618     3B1u    0.572618     3B3u    0.572618
       6Ag     0.663605     4B2u    1.006723     4B1u    1.006723
       1Au     1.006723     5B2u    1.006723     4B3u    1.006723
       5B1u    1.006723     5B3u    1.006723     2B1g    1.100216
       7Ag     1.100216     2B3g    1.100216     2B2g    1.100216
       8Ag     1.100216     6B2u    2.181421     6B1u    2.181421
       6B3u    2.181421     9Ag     2.828546     3B2g    2.828546
       3B3g    2.828546    10Ag     2.828546     4B2g    2.828546
       4B3g    2.828546     3B1g    2.828546     4B1g    2.828546
      11Ag     2.828546    12Ag     2.915425     7B1u    3.126892
       7B3u    3.126892     7B2u    3.126892     8B3u    3.126892
       2Au     3.126892     8B1u    3.126892     8B2u    3.126892
       5B1g    3.189737    13Ag     3.189737     5B3g    3.189737
       5B2g    3.189737    14Ag     3.189737     6B2g    8.191704
       7B2g    8.191704     6B1g    8.191704    15Ag     8.191704
       6B3g    8.191704     7B3g    8.191704     7B1g    8.191704
      16Ag     8.191704    17Ag     8.191704     9B1u    8.205852
       9B2u    8.205852     9B3u    8.205852    10B2u    9.087496
      10B1u    9.087496    10B3u    9.087496    11B1u    9.087496
      11B3u    9.087496     3Au     9.087496    11B2u    9.087496
      18Ag     9.501818    19Ag     9.501818     8B1g    9.501818
       8B3g    9.501818     8B2g    9.501818    20Ag    29.566915

    Beta Occupied:

       1Ag   -15.581219     2Ag    -0.726065

    Beta Virtual:

       1B1u    0.071984     1B2u    0.071984     1B3u    0.071984
       3Ag     0.121308     2B1u    0.200099     2B3u    0.200099
       2B2u    0.200099     1B1g    0.354275     1B2g    0.354275
       4Ag     0.354275     1B3g    0.354275     5Ag     0.354275
       3B2u    0.703360     3B1u    0.703360     3B3u    0.703360
       6Ag     0.733026     4B2u    1.022721     4B1u    1.022721
       1Au     1.022721     4B3u    1.022721     5B1u    1.022721
       5B2u    1.022721     5B3u    1.022721     2B1g    1.198223
       7Ag     1.198223     2B3g    1.198223     2B2g    1.198223
       8Ag     1.198223     6B2u    2.331374     6B1u    2.331374
       6B3u    2.331374     3B3g    2.854775     9Ag     2.854775
       3B2g    2.854775    10Ag     2.854775     4B2g    2.854775
       4B3g    2.854775     3B1g    2.854775     4B1g    2.854775
      11Ag     2.854775    12Ag     3.035253     7B1u    3.197541
       7B2u    3.197541     7B3u    3.197541     8B3u    3.197541
       2Au     3.197541     8B1u    3.197541     8B2u    3.197541
       5B1g    3.350485    13Ag     3.350485     5B2g    3.350485
       5B3g    3.350485    14Ag     3.350485     6B2g    8.255650
       7B2g    8.255650    15Ag     8.255650     6B3g    8.255650
       6B1g    8.255650     7B3g    8.255650     7B1g    8.255650
      16Ag     8.255650    17Ag     8.255650     9B2u    8.314440
       9B1u    8.314440     9B3u    8.314440    10B2u    9.190067
      10B1u    9.190067    10B3u    9.190067    11B1u    9.190067
      11B3u    9.190067     3Au     9.190067    11B2u    9.190067
      18Ag     9.627220    19Ag     9.627220     8B3g    9.627220
       8B1g    9.627220     8B2g    9.627220    20Ag    29.625881

    Final Occupation by Irrep:
             Ag   B1g   B2g   B3g    Au   B1u   B2u   B3u
    DOCC [     2,    0,    0,    0,    0,    0,    0,    0 ]
    SOCC [     0,    0,    0,    0,    0,    1,    1,    1 ]

  Energy converged.

  @UHF Final Energy:   -54.40381952064291

   => Energetics <=

    Nuclear Repulsion Energy =              0.0000000000000000
    One-Electron Energy =                 -73.9530116780703253
    Two-Electron Energy =                  19.5491921574274095
    PCM Polarization Energy =               0.0000000000000000
    Total Energy =                        -54.4038195206429123

    Alert: EFP and PCM quantities not currently incorporated into SCF psivars.
  UHF NO Occupations:
  HONO-2 :    1B1u 1.0000000
  HONO-1 :    1B2u 1.0000000
  HONO-0 :    1B3u 1.0000000
  LUNO+0 :    3 Ag 0.0039522
  LUNO+1 :    4 Ag 0.0000038
  LUNO+2 :    2B3u 0.0000000
  LUNO+3 :    5 Ag 0.0000000

Properties will be evaluated at   0.000000,   0.000000,   0.000000 Bohr

Properties computed using the SCF density matrix

  Nuclear Dipole Moment: (a.u.)
     X:     0.0000      Y:     0.0000      Z:     0.0000

  Electronic Dipole Moment: (a.u.)
     X:     0.0000      Y:     0.0000      Z:     0.0000

  Dipole Moment: (a.u.)
     X:     0.0000      Y:     0.0000      Z:     0.0000     Total:     0.0000

  Dipole Moment: (Debye)
     X:     0.0000      Y:     0.0000      Z:     0.0000     Total:     0.0000

*** tstop() called on cqc05 at Thu Aug 20 22:42:10 2020
Module time:
	user time   =       1.26 seconds =       0.02 minutes
	system time =       0.08 seconds =       0.00 minutes
	total time  =          1 seconds =       0.02 minutes
Total time:
	user time   =       1.26 seconds =       0.02 minutes
	system time =       0.08 seconds =       0.00 minutes
	total time  =          1 seconds =       0.02 minutes

*** tstart() called on cqc05
*** at Thu Aug 20 22:42:10 2020

	Wfn Parameters:
	--------------------
	Wavefunction         = CCSD
	Number of irreps     = 8
	Number of MOs        = 80
	Number of active MOs = 79
	AO-Basis             = NONE
	Semicanonical        = false
	Reference            = UHF
	Print Level          = 1

	IRREP	# MOs	# FZDC	# DOCC	# SOCC	# VIRT	# FZVR
	-----	-----	------	------	------	------	------
	 Ag	   20	    1	    1	    0	    18	    0
	 B1g	   8	    0	    0	    0	    8	    0
	 B2g	   8	    0	    0	    0	    8	    0
	 B3g	   8	    0	    0	    0	    8	    0
	 Au	   3	    0	    0	    0	    3	    0
	 B1u	   11	    0	    0	    1	    10	    0
	 B2u	   11	    0	    0	    1	    10	    0
	 B3u	   11	    0	    0	    1	    10	    0
	Transforming integrals...
	IWL integrals will be deleted.
	(OO|OO)...
	Presorting SO-basis two-electron integrals.
	Sorting File: SO Ints (nn|nn) nbuckets = 1
	Transforming the one-electron integrals and constructing Fock matrices
	Starting AA/AB first half-transformation.
	Sorting AA/AB half-transformed integrals.
	Starting BB first half-transformation.
	Sorting BB half-transformed integrals.
	First half integral transformation complete.
	Starting AA second half-transformation.
	Starting AB second half-transformation.
	Starting BB second half-transformation.
	Two-electron integral transformation complete.
	(OO|OV)...
	Starting AA second half-transformation.
	Starting AB second half-transformation.
	Starting BB second half-transformation.
	Two-electron integral transformation complete.
	(OO|VV)...
	Starting AA second half-transformation.
	Starting AB second half-transformation.
	Starting BB second half-transformation.
	Two-electron integral transformation complete.
	(OV|OO)...
	Starting AA/AB first half-transformation.
	Sorting AA/AB half-transformed integrals.
	Starting BB first half-transformation.
	Sorting BB half-transformed integrals.
	First half integral transformation complete.
	Starting AA second half-transformation.
	Starting AB second half-transformation.
	Starting BB second half-transformation.
	Two-electron integral transformation complete.
	(OV|OV)...
	Starting AA second half-transformation.
	Starting AB second half-transformation.
	Starting BB second half-transformation.
	Two-electron integral transformation complete.
	(OV|VV)...
	Starting AA second half-transformation.
	Starting AB second half-transformation.
	Starting BB second half-transformation.
	Two-electron integral transformation complete.
	(VV|OO)...
	Starting AA/AB first half-transformation.
	Sorting AA/AB half-transformed integrals.
	Starting BB first half-transformation.
	Sorting BB half-transformed integrals.
	First half integral transformation complete.
	Starting AA second half-transformation.
	Starting AB second half-transformation.
	Starting BB second half-transformation.
	Two-electron integral transformation complete.
	(VV|OV)...
	Starting AA second half-transformation.
	Starting AB second half-transformation.
	Starting BB second half-transformation.
	Two-electron integral transformation complete.
	(VV|VV)...
	Starting AA second half-transformation.
	Starting AB second half-transformation.
	Starting BB second half-transformation.
	Two-electron integral transformation complete.
	Frozen core energy     =    -44.73327718437476

	Size of irrep 0 of <AB|CD> integrals:      0.141 (MW) /      1.125 (MB)
	Size of irrep 1 of <AB|CD> integrals:      0.114 (MW) /      0.914 (MB)
	Size of irrep 2 of <AB|CD> integrals:      0.114 (MW) /      0.914 (MB)
	Size of irrep 3 of <AB|CD> integrals:      0.114 (MW) /      0.914 (MB)
	Size of irrep 4 of <AB|CD> integrals:      0.086 (MW) /      0.691 (MB)
	Size of irrep 5 of <AB|CD> integrals:      0.132 (MW) /      1.060 (MB)
	Size of irrep 6 of <AB|CD> integrals:      0.132 (MW) /      1.060 (MB)
	Size of irrep 7 of <AB|CD> integrals:      0.132 (MW) /      1.060 (MB)
	Total:                                     0.967 (MW) /      7.738 (MB)

	Size of irrep 0 of <ab|cd> integrals:      0.164 (MW) /      1.312 (MB)
	Size of irrep 1 of <ab|cd> integrals:      0.131 (MW) /      1.048 (MB)
	Size of irrep 2 of <ab|cd> integrals:      0.131 (MW) /      1.048 (MB)
	Size of irrep 3 of <ab|cd> integrals:      0.131 (MW) /      1.048 (MB)
	Size of irrep 4 of <ab|cd> integrals:      0.101 (MW) /      0.809 (MB)
	Size of irrep 5 of <ab|cd> integrals:      0.158 (MW) /      1.267 (MB)
	Size of irrep 6 of <ab|cd> integrals:      0.158 (MW) /      1.267 (MB)
	Size of irrep 7 of <ab|cd> integrals:      0.158 (MW) /      1.267 (MB)
	Total:                                     1.133 (MW) /      9.068 (MB)

	Size of irrep 0 of <Ab|Cd> integrals:      0.731 (MW) /      5.848 (MB)
	Size of irrep 1 of <Ab|Cd> integrals:      0.489 (MW) /      3.909 (MB)
	Size of irrep 2 of <Ab|Cd> integrals:      0.489 (MW) /      3.909 (MB)
	Size of irrep 3 of <Ab|Cd> integrals:      0.489 (MW) /      3.909 (MB)
	Size of irrep 4 of <Ab|Cd> integrals:      0.375 (MW) /      2.996 (MB)
	Size of irrep 5 of <Ab|Cd> integrals:      0.581 (MW) /      4.645 (MB)
	Size of irrep 6 of <Ab|Cd> integrals:      0.581 (MW) /      4.645 (MB)
	Size of irrep 7 of <Ab|Cd> integrals:      0.581 (MW) /      4.645 (MB)
	Total:                                     4.313 (MW) /     34.506 (MB)

	Size of irrep 0 of <IA|BC> integrals:      0.040 (MW) /      0.317 (MB)
	Size of irrep 1 of <IA|BC> integrals:      0.021 (MW) /      0.168 (MB)
	Size of irrep 2 of <IA|BC> integrals:      0.021 (MW) /      0.168 (MB)
	Size of irrep 3 of <IA|BC> integrals:      0.021 (MW) /      0.168 (MB)
	Size of irrep 4 of <IA|BC> integrals:      0.016 (MW) /      0.127 (MB)
	Size of irrep 5 of <IA|BC> integrals:      0.032 (MW) /      0.256 (MB)
	Size of irrep 6 of <IA|BC> integrals:      0.032 (MW) /      0.256 (MB)
	Size of irrep 7 of <IA|BC> integrals:      0.032 (MW) /      0.256 (MB)
	Total:                                     0.214 (MW) /      1.716 (MB)

	Size of irrep 0 of <ia|bc> integrals:      0.016 (MW) /      0.128 (MB)
	Size of irrep 1 of <ia|bc> integrals:      0.006 (MW) /      0.046 (MB)
	Size of irrep 2 of <ia|bc> integrals:      0.006 (MW) /      0.046 (MB)
	Size of irrep 3 of <ia|bc> integrals:      0.006 (MW) /      0.046 (MB)
	Size of irrep 4 of <ia|bc> integrals:      0.002 (MW) /      0.015 (MB)
	Size of irrep 5 of <ia|bc> integrals:      0.009 (MW) /      0.070 (MB)
	Size of irrep 6 of <ia|bc> integrals:      0.009 (MW) /      0.070 (MB)
	Size of irrep 7 of <ia|bc> integrals:      0.009 (MW) /      0.070 (MB)
	Total:                                     0.062 (MW) /      0.492 (MB)

	Size of irrep 0 of <Ia|Bc> integrals:      0.044 (MW) /      0.349 (MB)
	Size of irrep 1 of <Ia|Bc> integrals:      0.023 (MW) /      0.185 (MB)
	Size of irrep 2 of <Ia|Bc> integrals:      0.023 (MW) /      0.185 (MB)
	Size of irrep 3 of <Ia|Bc> integrals:      0.023 (MW) /      0.185 (MB)
	Size of irrep 4 of <Ia|Bc> integrals:      0.017 (MW) /      0.132 (MB)
	Size of irrep 5 of <Ia|Bc> integrals:      0.034 (MW) /      0.274 (MB)
	Size of irrep 6 of <Ia|Bc> integrals:      0.034 (MW) /      0.274 (MB)
	Size of irrep 7 of <Ia|Bc> integrals:      0.034 (MW) /      0.274 (MB)
	Total:                                     0.232 (MW) /      1.858 (MB)

	Size of irrep 0 of <iA|bC> integrals:      0.015 (MW) /      0.123 (MB)
	Size of irrep 1 of <iA|bC> integrals:      0.006 (MW) /      0.045 (MB)
	Size of irrep 2 of <iA|bC> integrals:      0.006 (MW) /      0.045 (MB)
	Size of irrep 3 of <iA|bC> integrals:      0.006 (MW) /      0.045 (MB)
	Size of irrep 4 of <iA|bC> integrals:      0.002 (MW) /      0.015 (MB)
	Size of irrep 5 of <iA|bC> integrals:      0.008 (MW) /      0.061 (MB)
	Size of irrep 6 of <iA|bC> integrals:      0.008 (MW) /      0.061 (MB)
	Size of irrep 7 of <iA|bC> integrals:      0.008 (MW) /      0.061 (MB)
	Total:                                     0.057 (MW) /      0.455 (MB)

	Size of irrep 0 of tIjAb amplitudes:       0.001 (MW) /      0.007 (MB)
	Size of irrep 1 of tIjAb amplitudes:       0.000 (MW) /      0.000 (MB)
	Size of irrep 2 of tIjAb amplitudes:       0.000 (MW) /      0.000 (MB)
	Size of irrep 3 of tIjAb amplitudes:       0.000 (MW) /      0.000 (MB)
	Size of irrep 4 of tIjAb amplitudes:       0.000 (MW) /      0.000 (MB)
	Size of irrep 5 of tIjAb amplitudes:       0.001 (MW) /      0.006 (MB)
	Size of irrep 6 of tIjAb amplitudes:       0.001 (MW) /      0.006 (MB)
	Size of irrep 7 of tIjAb amplitudes:       0.001 (MW) /      0.006 (MB)
	Total:                                     0.003 (MW) /      0.025 (MB)

	Nuclear Rep. energy          =      0.00000000000000
	SCF energy                   =    -54.40381952064291
	One-electron energy          =    -15.73914153561963
	Two-electron (AA) energy     =      3.42447810354503
	Two-electron (BB) energy     =      0.00000000000000
	Two-electron (AB) energy     =      2.64412109580649
	Two-electron energy          =      6.06859919935152
	Reference energy             =    -54.40381952064288

*** tstop() called on cqc05 at Thu Aug 20 22:42:10 2020
Module time:
	user time   =       0.41 seconds =       0.01 minutes
	system time =       0.32 seconds =       0.01 minutes
	total time  =          0 seconds =       0.00 minutes
Total time:
	user time   =       1.67 seconds =       0.03 minutes
	system time =       0.40 seconds =       0.01 minutes
	total time  =          1 seconds =       0.02 minutes

*** tstart() called on cqc05
*** at Thu Aug 20 22:42:10 2020

            **************************
            *                        *
            *        CCENERGY        *
            *                        *
            **************************

    Nuclear Rep. energy (wfn)     =    0.000000000000000
    SCF energy          (wfn)     =  -54.403819520642912
    Reference energy    (file100) =  -54.403819520642877

    Input parameters:
    -----------------
    Wave function   =     CCSD
    Reference wfn   =     UHF
    Brueckner       =     No
    Memory (Mbytes) =     250000.0
    Maxiter         =     50
    R_Convergence   =     1.0e-07
    E_Convergence   =     1.0e-06
    Restart         =     Yes
    DIIS            =     Yes
    AO Basis        =     NONE
    ABCD            =     NEW
    Cache Level     =     2
    Cache Type      =     LRU
    Print Level     =     1
    Num. of threads =     4
    # Amps to Print =     10
    Print MP2 Amps? =     No
    Analyze T2 Amps =     No
    Print Pair Ener =     No
    Local CC        =     No
    SCS-MP2         =     False
    SCSN-MP2        =     False
    SCS-CCSD        =     False

MP2 correlation energy -0.1046218609204387
                Solving CC Amplitude Equations
                ------------------------------
  Iter             Energy              RMS        T1Diag      D1Diag    New D1Diag    D2Diag
  ----     ---------------------    ---------   ----------  ----------  ----------   --------
     0        -0.104621860920439    0.000e+00    0.000000    0.000000    0.000000    0.000000
     1        -0.115316785722353    2.940e-02    0.004882    0.000000    0.000000    0.000000
     2        -0.118612577469158    1.125e-02    0.008409    0.000000    0.000000    0.000000
     3        -0.118798651765892    3.157e-03    0.009892    0.000000    0.000000    0.000000
     4        -0.118784713355729    8.046e-04    0.010088    0.000000    0.000000    0.000000
     5        -0.118787715026070    2.883e-04    0.010100    0.000000    0.000000    0.000000
     6        -0.118791242480072    7.910e-05    0.010084    0.000000    0.000000    0.000000
     7        -0.118791688361579    1.667e-05    0.010080    0.000000    0.000000    0.000000
     8        -0.118791542898356    3.410e-06    0.010080    0.000000    0.000000    0.000000
     9        -0.118791559089475    7.630e-07    0.010080    0.000000    0.000000    0.000000
    10        -0.118791564435866    1.791e-07    0.010080    0.000000    0.000000    0.000000
    11        -0.118791562354341    2.126e-08    0.010080    0.000000    0.000000    0.000000
    11        -0.118791562354341    2.126e-08    0.010080    0.000000    0.000000    0.000000

    Iterations converged.

    CCSD corr. energy   =   -0.118791562354341
    PPL corr. energy    =    0.027531537122375
    OS PPL corr. energy =    0.022129546593262
    SS PPL corr. energy =    0.005401990529113
    Largest TIA Amplitudes:
              1  45        -0.0067516322
              2  55        -0.0067516322
              3  65        -0.0067516322
              0   0        -0.0061956422
              1  46        -0.0047533859
              2  56        -0.0047533859
              3  66        -0.0047533859
              0   3         0.0037055369
              1  49         0.0019021722
              2  59         0.0019021722

    Largest Tia Amplitudes:
              0   3         0.0114131325
              0   0        -0.0089078142
              0   9        -0.0053134997
              0  17         0.0001339284

    Largest TIJAB Amplitudes:

      * MP2 total energy                      =  -54.508441381563316
      * CCSD total energy                     =  -54.522611082997216
*** Psi4 exiting successfully. Buy a developer a beer!
