                               Psi4 1.2a1.dev939

  ==> Input File <==

--------------------------------------------------------------------------
# Any line starting with the # character is a comment line

memory 32000 mb

molecule molecule {
0 1
Cl         0.0000000000        0.0000000000        0.9943524372
Cl         0.0000000000        0.0000000000       -0.9943524372
}

set {
  reference rhf
  basis aug-cc-pv(D+d)z
  scf_type OUT_OF_CORE
  freeze_core true
}

energy('ccsd')
--------------------------------------------------------------------------

    Molecular point group: d2h

    Geometry (in Angstrom), charge = 0, multiplicity = 1:

       Center              X                  Y                   Z               Mass
    ------------   -----------------  -----------------  -----------------  -----------------
          CL          0.000000000000     0.000000000000     0.994352437200    34.968852682000
          CL          0.000000000000     0.000000000000    -0.994352437200    34.968852682000

  Charge       = 0
  Multiplicity = 1
  Basis Set: AUG-CC-PV(D+D)Z
    Blend: AUG-CC-PV(D+D)Z

    Orbital Energies (a.u.)
    -----------------------

    Doubly Occupied:

       1Ag  -104.898128     1B1u -104.898127     2Ag   -10.621811
       2B1u  -10.621698     3Ag    -8.090216     3B1u   -8.089953
       1B2u   -8.084740     1B3u   -8.084740     1B3g   -8.084733
       1B2g   -8.084733     4Ag    -1.224343     4B1u   -1.018920
       5Ag    -0.602282     2B3u   -0.571388     2B2u   -0.571388
       2B2g   -0.445875     2B3g   -0.445875

  @RHF Final Energy:  -918.97020153262190

   => Energetics <=

    Nuclear Repulsion Energy =             76.9004065164018868
    One-Electron Energy =               -1422.8633159339260601
    Two-Electron Energy =                 426.9927078849022450
    Total Energy =                       -918.9702015326217861
      * MP2 total energy                      = -919.270076361713564
      * CCSD total energy                     = -919.298411288458169
*** Psi4 exiting successfully. Buy a developer a beer!
