                               Psi4 1.2a1.dev939

  ==> Input File <==

--------------------------------------------------------------------------
# Any line starting with the # character is a comment line

memory 32000 mb

molecule molecule {
0 1
Cl         0.0000000000        0.0000000000        0.9943524372
Cl         0.0000000000        0.0000000000       -0.9943524372
}

set {
  reference rhf

  basis aug-cc-pv(6+d)z
  scf_type OUT_OF_CORE
  freeze_core true
}

energy('ccsd')
--------------------------------------------------------------------------

    Molecular point group: d2h

    Geometry (in Angstrom), charge = 0, multiplicity = 1:

       Center              X                  Y                   Z               Mass
    ------------   -----------------  -----------------  -----------------  -----------------
          CL          0.000000000000     0.000000000000     0.994352437200    34.968852682000
          CL          0.000000000000     0.000000000000    -0.994352437200    34.968852682000

  Charge       = 0
  Multiplicity = 1
  Basis Set: AUG-CC-PV(6+D)Z
    Blend: AUG-CC-PV(6+D)Z

    Orbital Energies (a.u.)
    -----------------------

    Doubly Occupied:

       1Ag  -104.897656     1B1u -104.897653     2Ag   -10.619643
       2B1u  -10.619473     3Ag    -8.086582     3B1u   -8.086310
       1B3u   -8.084148     1B2u   -8.084148     1B2g   -8.084142
       1B3g   -8.084142     4Ag    -1.218400     4B1u   -1.014721
       5Ag    -0.597906     2B3u   -0.569984     2B2u   -0.569984
       2B2g   -0.443804     2B3g   -0.443804

  @RHF Final Energy:  -919.01074004852535

   => Energetics <=

    Nuclear Repulsion Energy =             76.9004065164018868
    One-Electron Energy =               -1423.0172918219047915
    Two-Electron Energy =                 427.1061452569775270
    PCM Polarization Energy =               0.0000000000000000
    Total Energy =                       -919.0107400485253493
      * MP2 total energy                      = -919.456440986007351
      * CCSD total energy                     = -919.478264853073824
*** Psi4 exiting successfully. Buy a developer a beer!
