                               Psi4 1.2a1.dev939

  ==> Input File <==

--------------------------------------------------------------------------
# Any line starting with the # character is a comment line

memory 32000 mb

molecule molecule {
0 1
Cl         0.0000000000        0.0000000000        0.9943524372
Cl         0.0000000000        0.0000000000       -0.9943524372
}

set {
  reference rhf

  basis aug-cc-pv(5+d)z
  scf_type OUT_OF_CORE
  freeze_core true
}

energy('ccsd')
--------------------------------------------------------------------------

    Molecular point group: d2h

    Geometry (in Angstrom), charge = 0, multiplicity = 1:

       Center              X                  Y                   Z               Mass
    ------------   -----------------  -----------------  -----------------  -----------------
          CL          0.000000000000     0.000000000000     0.994352437200    34.968852682000
          CL          0.000000000000     0.000000000000    -0.994352437200    34.968852682000

  Charge       = 0
  Multiplicity = 1
  Basis Set: AUG-CC-PV(5+D)Z
    Blend: AUG-CC-PV(5+D)Z

    Orbital Energies (a.u.)
    -----------------------

    Doubly Occupied:

       1Ag  -104.898036     1B1u -104.898034     2Ag   -10.619813
       2B1u  -10.619643     3Ag    -8.086913     3B1u   -8.086642
       1B3u   -8.084222     1B2u   -8.084222     1B2g   -8.084215
       1B3g   -8.084215     4Ag    -1.218472     4B1u   -1.014751
       5Ag    -0.597954     2B2u   -0.569991     2B3u   -0.569991
       2B3g   -0.443802     2B2g   -0.443802

  @RHF Final Energy:  -919.01037634493173

   => Energetics <=

    Nuclear Repulsion Energy =             76.9004065164018868
    One-Electron Energy =               -1423.0121269931005372
    Two-Electron Energy =                 427.1013441317668935
    Total Energy =                       -919.0103763449317285
      * MP2 total energy                      = -919.448117254653425
      * CCSD total energy                     = -919.472968710754003
*** Psi4 exiting successfully. Buy a developer a beer!
