                               Psi4 1.4a3.dev88

  ==> Input File <==

--------------------------------------------------------------------------
# Any line starting with the # character is a comment line
memory 250000 mb
molecule molecule{
1 2
Si          0.0000000000        0.0000000000        0.0000000000
}

set {
  reference uhf
  basis aug-cc-pV(t+d)Z
  scf_type OUT_OF_CORE
  freeze_core true
}

energy('ccsd(t)')
--------------------------------------------------------------------------

    Molecular point group: d2h
    Geometry (in Angstrom), charge = 1, multiplicity = 2:

       Center              X                  Y                   Z               Mass
    ------------   -----------------  -----------------  -----------------  -----------------
         SI           0.000000000000     0.000000000000     0.000000000000    27.976926534650

  Charge       = 1
  Multiplicity = 2
  Basis Set: AUG-CC-PV(T+D)Z
    Blend: AUG-CC-PV(T+D)Z

    Orbital Energies [Eh]
    ---------------------

    Alpha Occupied:

       1Ag   -69.177903     2Ag    -6.515327     1B2u   -4.624364
       1B3u   -4.611035     1B1u   -4.611035     3Ag    -0.884976
       2B2u   -0.595458

    Alpha Virtual:

       2B1u   -0.262694     2B3u   -0.262694     4Ag    -0.101057
       3B2u   -0.068254     3B1u   -0.065112     3B3u   -0.065112
       5Ag    -0.035892     1B3g   -0.035501     1B1g   -0.035501
       1B2g   -0.031788     6Ag    -0.031788     7Ag     0.187783
       2B3g    0.191085     2B1g    0.191085     4B2u    0.201813
       2B2g    0.204027     8Ag     0.204027     4B1u    0.220339
       4B3u    0.220339     9Ag     0.230280     5B3u    0.263303
       5B1u    0.263303     5B2u    0.269698     1Au     0.269698
       6B3u    0.274169     6B1u    0.274169     6B2u    0.275434
       3B2g    0.932310    10Ag     0.932310     3B1g    0.938338
       3B3g    0.938338    11Ag     0.940428     7B3u    1.132482
       7B1u    1.132482     2Au     1.139963     7B2u    1.139963
       8B3u    1.144213     8B1u    1.144213     8B2u    1.145592
       9B2u    2.174020     9B3u    2.181784     9B1u    2.181784
      12Ag     2.239618    13Ag     4.424556     4B2g    4.424556
       4B1g    4.438911     4B3g    4.438911    14Ag     4.443740

    Beta Occupied:

       1Ag   -69.171641     2Ag    -6.508149     1B3u   -4.607827
       1B1u   -4.607827     1B2u   -4.591287     3Ag    -0.796601

    Beta Virtual:

       2B3u   -0.251897     2B1u   -0.251897     2B2u   -0.201004
       4Ag    -0.096665     3B3u   -0.064043     3B1u   -0.064043
       3B2u   -0.053739     1B2g   -0.030856     5Ag    -0.030856
       1B1g   -0.017815     1B3g   -0.017815     6Ag    -0.012789
       2B2g    0.206159     7Ag     0.206159     4B3u    0.224865
       4B1u    0.224865     2B1g    0.234804     2B3g    0.234804
       8Ag     0.241021     9Ag     0.248442     4B2u    0.257090
       5B1u    0.263708     5B3u    0.263708     5B2u    0.277256
       1Au     0.277256     6B3u    0.286266     6B1u    0.286266
       6B2u    0.289947     3B2g    0.933671    10Ag     0.933671
       3B1g    0.965851     3B3g    0.965851    11Ag     0.978040
       7B1u    1.133001     7B3u    1.133001     7B2u    1.161218
       2Au     1.161218     8B3u    1.178964     8B1u    1.178964
       8B2u    1.185071     9B3u    2.186163     9B1u    2.186163
       9B2u    2.224493    12Ag     2.252971    13Ag     4.425139
       4B2g    4.425139     4B1g    4.446149     4B3g    4.446149
      14Ag     4.453375

    Final Occupation by Irrep:
             Ag   B1g   B2g   B3g    Au   B1u   B2u   B3u
    DOCC [     3,    0,    0,    0,    0,    1,    1,    1 ]
    SOCC [     0,    0,    0,    0,    0,    0,    1,    0 ]

  @UHF Final Energy:  -288.57595558463981

   => Energetics <=

    Nuclear Repulsion Energy =              0.0000000000000000
    One-Electron Energy =                -395.8484812674432760
    Two-Electron Energy =                 107.2725256828034333
    Total Energy =                       -288.5759555846398143

  UHF NO Occupations:
  HONO-2 :    1B2u 1.9999939
  HONO-1 :    3 Ag 1.9917871
  HONO-0 :    2B2u 1.0000000
  LUNO+0 :    4 Ag 0.0082129
  LUNO+1 :    3B2u 0.0000061
  LUNO+2 :    2B3u 0.0000003
  LUNO+3 :    2B1u 0.0000003

Computation Completed

Properties will be evaluated at   0.000000,   0.000000,   0.000000 [a0]

Properties computed using the SCF density matrix

  Nuclear Dipole Moment: [e a0]
     X:     0.0000      Y:     0.0000      Z:     0.0000

  Electronic Dipole Moment: [e a0]
     X:     0.0000      Y:     0.0000      Z:     0.0000

  Dipole Moment: [e a0]
     X:     0.0000      Y:     0.0000      Z:     0.0000     Total:     0.0000

  Dipole Moment: [D]
     X:     0.0000      Y:     0.0000      Z:     0.0000     Total:     0.0000

*** tstop() called on n412-040.vsc4.prov at Tue Jan 26 18:03:30 2021
Module time:
	user time   =      11.90 seconds =       0.20 minutes
	system time =       1.06 seconds =       0.02 minutes
	total time  =          4 seconds =       0.07 minutes
Total time:
	user time   =      11.90 seconds =       0.20 minutes
	system time =       1.06 seconds =       0.02 minutes
	total time  =          4 seconds =       0.07 minutes

*** tstart() called on n412-040.vsc4.prov
*** at Tue Jan 26 18:03:30 2021

	Wfn Parameters:
	--------------------
	Wavefunction         = CCSD_T
	Number of irreps     = 8
	Number of MOs        = 55
	Number of active MOs = 50
	AO-Basis             = NONE
	Semicanonical        = false
	Reference            = UHF
	Print Level          = 1

	IRREP	# MOs	# FZDC	# DOCC	# SOCC	# VIRT	# FZVR
	-----	-----	------	------	------	------	------
	 Ag	   14	    2	    1	    0	    11	    0
	 B1g	   4	    0	    0	    0	    4	    0
	 B2g	   4	    0	    0	    0	    4	    0
	 B3g	   4	    0	    0	    0	    4	    0
	 Au	   2	    0	    0	    0	    2	    0
	 B1u	   9	    1	    0	    0	    8	    0
	 B2u	   9	    1	    0	    1	    7	    0
	 B3u	   9	    1	    0	    0	    8	    0
	Transforming integrals...
	IWL integrals will be deleted.
	(OO|OO)...
	Presorting SO-basis two-electron integrals.
	Sorting File: SO Ints (nn|nn) nbuckets = 1
	Constructing frozen core operators
	Starting AA/AB first half-transformation.
	Sorting AA/AB half-transformed integrals.
	Starting BB first half-transformation.
	Sorting BB half-transformed integrals.
	First half integral transformation complete.
	Starting AA second half-transformation.
	Starting AB second half-transformation.
	Starting BB second half-transformation.
	Two-electron integral transformation complete.
	(OO|OV)...
	Starting AA second half-transformation.
	Starting AB second half-transformation.
	Starting BB second half-transformation.
	Two-electron integral transformation complete.
	(OO|VV)...
	Starting AA second half-transformation.
	Starting AB second half-transformation.
	Starting BB second half-transformation.
	Two-electron integral transformation complete.
	(OV|OO)...
	Starting AA/AB first half-transformation.
	Sorting AA/AB half-transformed integrals.
	Starting BB first half-transformation.
	Sorting BB half-transformed integrals.
	First half integral transformation complete.
	Starting AA second half-transformation.
	Starting AB second half-transformation.
	Starting BB second half-transformation.
	Two-electron integral transformation complete.
	(OV|OV)...
	Starting AA second half-transformation.
	Starting AB second half-transformation.
	Starting BB second half-transformation.
	Two-electron integral transformation complete.
	(OV|VV)...
	Starting AA second half-transformation.
	Starting AB second half-transformation.
	Starting BB second half-transformation.
	Two-electron integral transformation complete.
	(VV|OO)...
	Starting AA/AB first half-transformation.
	Sorting AA/AB half-transformed integrals.
	Starting BB first half-transformation.
	Sorting BB half-transformed integrals.
	First half integral transformation complete.
	Starting AA second half-transformation.
	Starting AB second half-transformation.
	Starting BB second half-transformation.
	Two-electron integral transformation complete.
	(VV|OV)...
	Starting AA second half-transformation.
	Starting AB second half-transformation.
	Starting BB second half-transformation.
	Two-electron integral transformation complete.
	(VV|VV)...
	Starting AA second half-transformation.
	Starting AB second half-transformation.
	Starting BB second half-transformation.
	Two-electron integral transformation complete.
	Frozen core energy     =   -285.17566196817558

	Size of irrep 0 of <AB|CD> integrals:      0.023 (MW) /      0.182 (MB)
	Size of irrep 1 of <AB|CD> integrals:      0.017 (MW) /      0.139 (MB)
	Size of irrep 2 of <AB|CD> integrals:      0.019 (MW) /      0.152 (MB)
	Size of irrep 3 of <AB|CD> integrals:      0.017 (MW) /      0.139 (MB)
	Size of irrep 4 of <AB|CD> integrals:      0.013 (MW) /      0.104 (MB)
	Size of irrep 5 of <AB|CD> integrals:      0.024 (MW) /      0.195 (MB)
	Size of irrep 6 of <AB|CD> integrals:      0.022 (MW) /      0.178 (MB)
	Size of irrep 7 of <AB|CD> integrals:      0.024 (MW) /      0.195 (MB)
	Total:                                     0.161 (MW) /      1.284 (MB)

	Size of irrep 0 of <ab|cd> integrals:      0.025 (MW) /      0.200 (MB)
	Size of irrep 1 of <ab|cd> integrals:      0.020 (MW) /      0.157 (MB)
	Size of irrep 2 of <ab|cd> integrals:      0.020 (MW) /      0.157 (MB)
	Size of irrep 3 of <ab|cd> integrals:      0.020 (MW) /      0.157 (MB)
	Size of irrep 4 of <ab|cd> integrals:      0.014 (MW) /      0.111 (MB)
	Size of irrep 5 of <ab|cd> integrals:      0.026 (MW) /      0.205 (MB)
	Size of irrep 6 of <ab|cd> integrals:      0.026 (MW) /      0.205 (MB)
	Size of irrep 7 of <ab|cd> integrals:      0.026 (MW) /      0.205 (MB)
	Total:                                     0.174 (MW) /      1.396 (MB)

	Size of irrep 0 of <Ab|Cd> integrals:      0.127 (MW) /      1.020 (MB)
	Size of irrep 1 of <Ab|Cd> integrals:      0.074 (MW) /      0.592 (MB)
	Size of irrep 2 of <Ab|Cd> integrals:      0.077 (MW) /      0.618 (MB)
	Size of irrep 3 of <Ab|Cd> integrals:      0.074 (MW) /      0.592 (MB)
	Size of irrep 4 of <Ab|Cd> integrals:      0.054 (MW) /      0.431 (MB)
	Size of irrep 5 of <Ab|Cd> integrals:      0.100 (MW) /      0.799 (MB)
	Size of irrep 6 of <Ab|Cd> integrals:      0.095 (MW) /      0.764 (MB)
	Size of irrep 7 of <Ab|Cd> integrals:      0.100 (MW) /      0.799 (MB)
	Total:                                     0.702 (MW) /      5.614 (MB)

	Size of irrep 0 of <IA|BC> integrals:      0.006 (MW) /      0.050 (MB)
	Size of irrep 1 of <IA|BC> integrals:      0.003 (MW) /      0.025 (MB)
	Size of irrep 2 of <IA|BC> integrals:      0.002 (MW) /      0.013 (MB)
	Size of irrep 3 of <IA|BC> integrals:      0.003 (MW) /      0.025 (MB)
	Size of irrep 4 of <IA|BC> integrals:      0.001 (MW) /      0.011 (MB)
	Size of irrep 5 of <IA|BC> integrals:      0.004 (MW) /      0.030 (MB)
	Size of irrep 6 of <IA|BC> integrals:      0.005 (MW) /      0.043 (MB)
	Size of irrep 7 of <IA|BC> integrals:      0.004 (MW) /      0.030 (MB)
	Total:                                     0.029 (MW) /      0.228 (MB)

	Size of irrep 0 of <ia|bc> integrals:      0.004 (MW) /      0.032 (MB)
	Size of irrep 1 of <ia|bc> integrals:      0.001 (MW) /      0.009 (MB)
	Size of irrep 2 of <ia|bc> integrals:      0.001 (MW) /      0.009 (MB)
	Size of irrep 3 of <ia|bc> integrals:      0.001 (MW) /      0.009 (MB)
	Size of irrep 4 of <ia|bc> integrals:      0.000 (MW) /      0.004 (MB)
	Size of irrep 5 of <ia|bc> integrals:      0.003 (MW) /      0.020 (MB)
	Size of irrep 6 of <ia|bc> integrals:      0.003 (MW) /      0.020 (MB)
	Size of irrep 7 of <ia|bc> integrals:      0.003 (MW) /      0.020 (MB)
	Total:                                     0.016 (MW) /      0.124 (MB)

	Size of irrep 0 of <Ia|Bc> integrals:      0.007 (MW) /      0.054 (MB)
	Size of irrep 1 of <Ia|Bc> integrals:      0.003 (MW) /      0.026 (MB)
	Size of irrep 2 of <Ia|Bc> integrals:      0.002 (MW) /      0.013 (MB)
	Size of irrep 3 of <Ia|Bc> integrals:      0.003 (MW) /      0.026 (MB)
	Size of irrep 4 of <Ia|Bc> integrals:      0.001 (MW) /      0.011 (MB)
	Size of irrep 5 of <Ia|Bc> integrals:      0.004 (MW) /      0.030 (MB)
	Size of irrep 6 of <Ia|Bc> integrals:      0.006 (MW) /      0.047 (MB)
	Size of irrep 7 of <Ia|Bc> integrals:      0.004 (MW) /      0.030 (MB)
	Total:                                     0.030 (MW) /      0.239 (MB)

	Size of irrep 0 of <iA|bC> integrals:      0.004 (MW) /      0.031 (MB)
	Size of irrep 1 of <iA|bC> integrals:      0.001 (MW) /      0.009 (MB)
	Size of irrep 2 of <iA|bC> integrals:      0.001 (MW) /      0.009 (MB)
	Size of irrep 3 of <iA|bC> integrals:      0.001 (MW) /      0.009 (MB)
	Size of irrep 4 of <iA|bC> integrals:      0.000 (MW) /      0.004 (MB)
	Size of irrep 5 of <iA|bC> integrals:      0.003 (MW) /      0.020 (MB)
	Size of irrep 6 of <iA|bC> integrals:      0.002 (MW) /      0.017 (MB)
	Size of irrep 7 of <iA|bC> integrals:      0.003 (MW) /      0.020 (MB)
	Total:                                     0.015 (MW) /      0.119 (MB)

	Size of irrep 0 of tIjAb amplitudes:       0.000 (MW) /      0.003 (MB)
	Size of irrep 1 of tIjAb amplitudes:       0.000 (MW) /      0.000 (MB)
	Size of irrep 2 of tIjAb amplitudes:       0.000 (MW) /      0.000 (MB)
	Size of irrep 3 of tIjAb amplitudes:       0.000 (MW) /      0.000 (MB)
	Size of irrep 4 of tIjAb amplitudes:       0.000 (MW) /      0.000 (MB)
	Size of irrep 5 of tIjAb amplitudes:       0.000 (MW) /      0.000 (MB)
	Size of irrep 6 of tIjAb amplitudes:       0.000 (MW) /      0.002 (MB)
	Size of irrep 7 of tIjAb amplitudes:       0.000 (MW) /      0.000 (MB)
	Total:                                     0.001 (MW) /      0.005 (MB)

	Nuclear Rep. energy          =      0.00000000000000
	SCF energy                   =   -288.57595558463981
	One-electron energy          =     -4.52355244728625
	Two-electron (AA) energy     =      0.30218485204235
	Two-electron (BB) energy     =      0.00000000000000
	Two-electron (AB) energy     =      0.82107397877995
	Two-electron energy          =      1.12325883082230
	Reference energy             =   -288.57595558463953

*** tstop() called on n412-040.vsc4.prov at Tue Jan 26 18:03:31 2021
Module time:
	user time   =       0.15 seconds =       0.00 minutes
	system time =       0.21 seconds =       0.00 minutes
	total time  =          1 seconds =       0.02 minutes
Total time:
	user time   =      12.05 seconds =       0.20 minutes
	system time =       1.27 seconds =       0.02 minutes
	total time  =          5 seconds =       0.08 minutes
            **************************
            *                        *
            *        CCENERGY        *
            *                        *
            **************************

    Nuclear Rep. energy (wfn)     =    0.000000000000000
    SCF energy          (wfn)     = -288.575955584639814
    Reference energy    (file100) = -288.575955584639530

    Input parameters:
    -----------------
    Wave function   =     CCSD_T
    Reference wfn   =     UHF
    Brueckner       =     No
    Memory (Mbytes) =     250000.0
    Maxiter         =     50
    R_Convergence   =     1.0e-07
    E_Convergence   =     1.0e-06
    Restart         =     Yes
    DIIS            =     Yes
    AO Basis        =     NONE
    ABCD            =     NEW
    Cache Level     =     2
    Cache Type      =     LRU
    Print Level     =     1
    Num. of threads =     48
    # Amps to Print =     10
    Print MP2 Amps? =     No
    Analyze T2 Amps =     No
    Print Pair Ener =     No
    Local CC        =     No
    SCS-MP2         =     False
    SCSN-MP2        =     False
    SCS-CCSD        =     False

MP2 correlation energy -0.0415445704426785
                Solving CC Amplitude Equations
                ------------------------------
  Iter             Energy              RMS        T1Diag      D1Diag    New D1Diag    D2Diag
  ----     ---------------------    ---------   ----------  ----------  ----------   --------
     0        -0.041544570442679    0.000e+00    0.000000    0.000000    0.000000    0.000000
     1        -0.052077847036212    5.507e-02    0.009626    0.000000    0.000000    0.000000
     2        -0.058391658834893    2.468e-02    0.018836    0.000000    0.000000    0.000000
     3        -0.058665144834588    4.543e-03    0.020502    0.000000    0.000000    0.000000
     4        -0.058756369133901    9.177e-04    0.020653    0.000000    0.000000    0.000000
     5        -0.058730420265921    1.546e-04    0.020597    0.000000    0.000000    0.000000
     6        -0.058739140696836    3.752e-05    0.020604    0.000000    0.000000    0.000000
     7        -0.058737513592008    1.098e-05    0.020603    0.000000    0.000000    0.000000
     8        -0.058737562959381    2.636e-06    0.020603    0.000000    0.000000    0.000000
     9        -0.058737645807590    5.148e-07    0.020604    0.000000    0.000000    0.000000
    10        -0.058737644149588    1.159e-07    0.020604    0.000000    0.000000    0.000000
    11        -0.058737643539239    3.448e-08    0.020604    0.000000    0.000000    0.000000

    Iterations converged.

    Largest TIA Amplitudes:
              0   1        -0.0216486778
              0   3        -0.0212503353
              0   5         0.0081644815
              0   7        -0.0064324270
              1  36         0.0052467494
              0   0        -0.0052161473
              1  34         0.0041097046
              1  38         0.0038179857
              1  33         0.0030947628
              0  10        -0.0004771006

    Largest Tia Amplitudes:
              0   0        -0.0081653085
              0   4         0.0078047303
              0   2         0.0038063364
              0   5        -0.0017120519
              0   7         0.0015431830
              0   8         0.0013079164
              0  10         0.0000297372

    Largest TIJAB Amplitudes:
      1   0  25  20        -0.0189782257
      1   0  40  12        -0.0189782255
      1   0  25  19        -0.0173233679
      1   0  40  11        -0.0173233677
      1   0  34   5        -0.0126113917
      1   0  34   0         0.0077087025
      1   0  27  20         0.0071440023
      1   0  42  12         0.0071440022
      1   0  33   5        -0.0065624508
      1   0  25  21        -0.0054098090

    Largest TIjAb Amplitudes:
      0   0  25  25        -0.1047325420
      0   0  40  41        -0.1047325418
      1   0   3  33         0.0562316941
      1   0  12  41         0.0517922596
      1   0  20  25         0.0517922594
      1   0   1  33         0.0480373105
      1   0  11  41         0.0429007029
      1   0  19  25         0.0429007028
      0   0  25  27         0.0358899558
      0   0  40  43         0.0358899556

    SCF energy       (wfn)                    = -288.575955584639814

      * MP2 total energy                      = -288.617500155082212
      * CCSD total energy                     = -288.634693228178776
      * CCSD(T) total energy                     = -288.635795924032550
*** Psi4 exiting successfully. Buy a developer a beer!
