                               Psi4 1.4a3.dev88

  ==> Input File <==

--------------------------------------------------------------------------
# Any line starting with the # character is a comment line
memory 250000 mb
molecule molecule{
1 2
Si          0.0000000000        0.0000000000        0.0000000000
}

set {
  reference uhf
  basis aug-cc-pV(d+d)Z
  scf_type OUT_OF_CORE
  freeze_core true
}

energy('ccsd(t)')
--------------------------------------------------------------------------

    Molecular point group: d2h
    Geometry (in Angstrom), charge = 1, multiplicity = 2:

       Center              X                  Y                   Z               Mass
    ------------   -----------------  -----------------  -----------------  -----------------
         SI           0.000000000000     0.000000000000     0.000000000000    27.976926534650

  Charge       = 1
  Multiplicity = 2
  Basis Set: AUG-CC-PV(D+D)Z
    Blend: AUG-CC-PV(D+D)Z

    Orbital Energies [Eh]
    ---------------------

    Alpha Occupied:

       1Ag   -69.184118     2Ag    -6.518507     1B1u   -4.626571
       1B2u   -4.615263     1B3u   -4.615263     3Ag    -0.885557
       2B1u   -0.594611

    Alpha Virtual:

       2B2u   -0.263547     2B3u   -0.263547     4Ag    -0.099610
       3B1u   -0.066490     3B2u   -0.063045     3B3u   -0.063045
       5Ag    -0.008783     1B3g   -0.007478     1B2g   -0.007478
       6Ag     0.001420     1B1g    0.001420     4B1u    0.269219
       4B2u    0.292028     4B3u    0.292028     7Ag     0.302239
       8Ag     0.381064     2B3g    0.382996     2B2g    0.382996
       9Ag     0.393356     2B1g    0.393356    10Ag     2.975331
       3B1g    2.975331     3B3g    2.990586     3B2g    2.990586
      11Ag     2.995630

    Beta Occupied:

       1Ag   -69.178226     2Ag    -6.511394     1B2u   -4.612253
       1B3u   -4.612253     1B1u   -4.595509     3Ag    -0.797080

    Beta Virtual:

       2B3u   -0.251679     2B2u   -0.251679     2B1u   -0.201241
       4Ag    -0.094676     3B2u   -0.061750     3B3u   -0.061750
       3B1u   -0.050552     5Ag     0.003083     1B1g    0.003083
       1B3g    0.022766     1B2g    0.022766     6Ag     0.030055
       4B2u    0.297514     4B3u    0.297514     7Ag     0.317510
       4B1u    0.332636     8Ag     0.395826     2B1g    0.395826
       2B3g    0.429099     2B2g    0.429099     9Ag     0.442397
      10Ag     2.975951     3B1g    2.975951     3B3g    2.998780
       3B2g    2.998780    11Ag     3.006415

    Final Occupation by Irrep:
             Ag   B1g   B2g   B3g    Au   B1u   B2u   B3u
    DOCC [     3,    0,    0,    0,    0,    1,    1,    1 ]
    SOCC [     0,    0,    0,    0,    0,    1,    0,    0 ]

  @UHF Final Energy:  -288.56999875527902

   => Energetics <=

    Nuclear Repulsion Energy =              0.0000000000000000
    One-Electron Energy =                -395.7933926496258437
    Two-Electron Energy =                 107.2233938943467990
    Total Energy =                       -288.5699987552790162

  UHF NO Occupations:
  HONO-2 :    1B1u 1.9999992
  HONO-1 :    3 Ag 1.9923507
  HONO-0 :    2B1u 1.0000000
  LUNO+0 :    4 Ag 0.0076493
  LUNO+1 :    3B1u 0.0000008
  LUNO+2 :    5 Ag 0.0000001
  LUNO+3 :    2B2u 0.0000000

Computation Completed

Properties will be evaluated at   0.000000,   0.000000,   0.000000 [a0]

Properties computed using the SCF density matrix

  Nuclear Dipole Moment: [e a0]
     X:     0.0000      Y:     0.0000      Z:     0.0000

  Electronic Dipole Moment: [e a0]
     X:     0.0000      Y:     0.0000      Z:     0.0000

  Dipole Moment: [e a0]
     X:     0.0000      Y:     0.0000      Z:     0.0000     Total:     0.0000

  Dipole Moment: [D]
     X:     0.0000      Y:     0.0000      Z:     0.0000     Total:     0.0000

*** tstop() called on n412-039.vsc4.prov at Tue Jan 26 18:14:06 2021
Module time:
	user time   =       7.02 seconds =       0.12 minutes
	system time =       0.58 seconds =       0.01 minutes
	total time  =          2 seconds =       0.03 minutes
Total time:
	user time   =       7.02 seconds =       0.12 minutes
	system time =       0.58 seconds =       0.01 minutes
	total time  =          2 seconds =       0.03 minutes

*** tstart() called on n412-039.vsc4.prov
*** at Tue Jan 26 18:14:06 2021

	Wfn Parameters:
	--------------------
	Wavefunction         = CCSD_T
	Number of irreps     = 8
	Number of MOs        = 32
	Number of active MOs = 27
	AO-Basis             = NONE
	Semicanonical        = false
	Reference            = UHF
	Print Level          = 1

	IRREP	# MOs	# FZDC	# DOCC	# SOCC	# VIRT	# FZVR
	-----	-----	------	------	------	------	------
	 Ag	   11	    2	    1	    0	    8	    0
	 B1g	   3	    0	    0	    0	    3	    0
	 B2g	   3	    0	    0	    0	    3	    0
	 B3g	   3	    0	    0	    0	    3	    0
	 Au	   0	    0	    0	    0	    0	    0
	 B1u	   4	    1	    0	    1	    2	    0
	 B2u	   4	    1	    0	    0	    3	    0
	 B3u	   4	    1	    0	    0	    3	    0
	Transforming integrals...
	IWL integrals will be deleted.
	(OO|OO)...
	Presorting SO-basis two-electron integrals.
	Sorting File: SO Ints (nn|nn) nbuckets = 1
	Constructing frozen core operators
	Starting AA/AB first half-transformation.
	Sorting AA/AB half-transformed integrals.
	Starting BB first half-transformation.
	Sorting BB half-transformed integrals.
	First half integral transformation complete.
	Starting AA second half-transformation.
	Starting AB second half-transformation.
	Starting BB second half-transformation.
	Two-electron integral transformation complete.
	(OO|OV)...
	Starting AA second half-transformation.
	Starting AB second half-transformation.
	Starting BB second half-transformation.
	Two-electron integral transformation complete.
	(OO|VV)...
	Starting AA second half-transformation.
	Starting AB second half-transformation.
	Starting BB second half-transformation.
	Two-electron integral transformation complete.
	(OV|OO)...
	Starting AA/AB first half-transformation.
	Sorting AA/AB half-transformed integrals.
	Starting BB first half-transformation.
	Sorting BB half-transformed integrals.
	First half integral transformation complete.
	Starting AA second half-transformation.
	Starting AB second half-transformation.
	Starting BB second half-transformation.
	Two-electron integral transformation complete.
	(OV|OV)...
	Starting AA second half-transformation.
	Starting AB second half-transformation.
	Starting BB second half-transformation.
	Two-electron integral transformation complete.
	(OV|VV)...
	Starting AA second half-transformation.
	Starting AB second half-transformation.
	Starting BB second half-transformation.
	Two-electron integral transformation complete.
	(VV|OO)...
	Starting AA/AB first half-transformation.
	Sorting AA/AB half-transformed integrals.
	Starting BB first half-transformation.
	Sorting BB half-transformed integrals.
	First half integral transformation complete.
	Starting AA second half-transformation.
	Starting AB second half-transformation.
	Starting BB second half-transformation.
	Two-electron integral transformation complete.
	(VV|OV)...
	Starting AA second half-transformation.
	Starting AB second half-transformation.
	Starting BB second half-transformation.
	Two-electron integral transformation complete.
	(VV|VV)...
	Starting AA second half-transformation.
	Starting AB second half-transformation.
	Starting BB second half-transformation.
	Two-electron integral transformation complete.
	Frozen core energy     =   -285.17124429869102

	Size of irrep 0 of <AB|CD> integrals:      0.002 (MW) /      0.015 (MB)
	Size of irrep 1 of <AB|CD> integrals:      0.002 (MW) /      0.014 (MB)
	Size of irrep 2 of <AB|CD> integrals:      0.002 (MW) /      0.012 (MB)
	Size of irrep 3 of <AB|CD> integrals:      0.002 (MW) /      0.012 (MB)
	Size of irrep 4 of <AB|CD> integrals:      0.001 (MW) /      0.005 (MB)
	Size of irrep 5 of <AB|CD> integrals:      0.001 (MW) /      0.009 (MB)
	Size of irrep 6 of <AB|CD> integrals:      0.002 (MW) /      0.012 (MB)
	Size of irrep 7 of <AB|CD> integrals:      0.002 (MW) /      0.012 (MB)
	Total:                                     0.012 (MW) /      0.092 (MB)

	Size of irrep 0 of <ab|cd> integrals:      0.002 (MW) /      0.017 (MB)
	Size of irrep 1 of <ab|cd> integrals:      0.002 (MW) /      0.014 (MB)
	Size of irrep 2 of <ab|cd> integrals:      0.002 (MW) /      0.014 (MB)
	Size of irrep 3 of <ab|cd> integrals:      0.002 (MW) /      0.014 (MB)
	Size of irrep 4 of <ab|cd> integrals:      0.001 (MW) /      0.006 (MB)
	Size of irrep 5 of <ab|cd> integrals:      0.002 (MW) /      0.014 (MB)
	Size of irrep 6 of <ab|cd> integrals:      0.002 (MW) /      0.014 (MB)
	Size of irrep 7 of <ab|cd> integrals:      0.002 (MW) /      0.014 (MB)
	Total:                                     0.013 (MW) /      0.107 (MB)

	Size of irrep 0 of <Ab|Cd> integrals:      0.013 (MW) /      0.106 (MB)
	Size of irrep 1 of <Ab|Cd> integrals:      0.007 (MW) /      0.056 (MB)
	Size of irrep 2 of <Ab|Cd> integrals:      0.007 (MW) /      0.052 (MB)
	Size of irrep 3 of <Ab|Cd> integrals:      0.007 (MW) /      0.052 (MB)
	Size of irrep 4 of <Ab|Cd> integrals:      0.003 (MW) /      0.021 (MB)
	Size of irrep 5 of <Ab|Cd> integrals:      0.006 (MW) /      0.046 (MB)
	Size of irrep 6 of <Ab|Cd> integrals:      0.007 (MW) /      0.052 (MB)
	Size of irrep 7 of <Ab|Cd> integrals:      0.007 (MW) /      0.052 (MB)
	Total:                                     0.055 (MW) /      0.439 (MB)

	Size of irrep 0 of <IA|BC> integrals:      0.001 (MW) /      0.009 (MB)
	Size of irrep 1 of <IA|BC> integrals:      0.000 (MW) /      0.002 (MB)
	Size of irrep 2 of <IA|BC> integrals:      0.000 (MW) /      0.004 (MB)
	Size of irrep 3 of <IA|BC> integrals:      0.000 (MW) /      0.004 (MB)
	Size of irrep 4 of <IA|BC> integrals:      0.000 (MW) /      0.001 (MB)
	Size of irrep 5 of <IA|BC> integrals:      0.001 (MW) /      0.005 (MB)
	Size of irrep 6 of <IA|BC> integrals:      0.000 (MW) /      0.004 (MB)
	Size of irrep 7 of <IA|BC> integrals:      0.000 (MW) /      0.004 (MB)
	Total:                                     0.004 (MW) /      0.033 (MB)

	Size of irrep 0 of <ia|bc> integrals:      0.001 (MW) /      0.008 (MB)
	Size of irrep 1 of <ia|bc> integrals:      0.000 (MW) /      0.002 (MB)
	Size of irrep 2 of <ia|bc> integrals:      0.000 (MW) /      0.002 (MB)
	Size of irrep 3 of <ia|bc> integrals:      0.000 (MW) /      0.002 (MB)
	Size of irrep 4 of <ia|bc> integrals:      0.000 (MW) /      0.000 (MB)
	Size of irrep 5 of <ia|bc> integrals:      0.000 (MW) /      0.002 (MB)
	Size of irrep 6 of <ia|bc> integrals:      0.000 (MW) /      0.002 (MB)
	Size of irrep 7 of <ia|bc> integrals:      0.000 (MW) /      0.002 (MB)
	Total:                                     0.002 (MW) /      0.020 (MB)

	Size of irrep 0 of <Ia|Bc> integrals:      0.001 (MW) /      0.010 (MB)
	Size of irrep 1 of <Ia|Bc> integrals:      0.000 (MW) /      0.002 (MB)
	Size of irrep 2 of <Ia|Bc> integrals:      0.000 (MW) /      0.004 (MB)
	Size of irrep 3 of <Ia|Bc> integrals:      0.000 (MW) /      0.004 (MB)
	Size of irrep 4 of <Ia|Bc> integrals:      0.000 (MW) /      0.001 (MB)
	Size of irrep 5 of <Ia|Bc> integrals:      0.001 (MW) /      0.007 (MB)
	Size of irrep 6 of <Ia|Bc> integrals:      0.000 (MW) /      0.004 (MB)
	Size of irrep 7 of <Ia|Bc> integrals:      0.000 (MW) /      0.004 (MB)
	Total:                                     0.004 (MW) /      0.036 (MB)

	Size of irrep 0 of <iA|bC> integrals:      0.001 (MW) /      0.007 (MB)
	Size of irrep 1 of <iA|bC> integrals:      0.000 (MW) /      0.002 (MB)
	Size of irrep 2 of <iA|bC> integrals:      0.000 (MW) /      0.002 (MB)
	Size of irrep 3 of <iA|bC> integrals:      0.000 (MW) /      0.002 (MB)
	Size of irrep 4 of <iA|bC> integrals:      0.000 (MW) /      0.000 (MB)
	Size of irrep 5 of <iA|bC> integrals:      0.000 (MW) /      0.001 (MB)
	Size of irrep 6 of <iA|bC> integrals:      0.000 (MW) /      0.002 (MB)
	Size of irrep 7 of <iA|bC> integrals:      0.000 (MW) /      0.002 (MB)
	Total:                                     0.002 (MW) /      0.018 (MB)

	Size of irrep 0 of tIjAb amplitudes:       0.000 (MW) /      0.001 (MB)
	Size of irrep 1 of tIjAb amplitudes:       0.000 (MW) /      0.000 (MB)
	Size of irrep 2 of tIjAb amplitudes:       0.000 (MW) /      0.000 (MB)
	Size of irrep 3 of tIjAb amplitudes:       0.000 (MW) /      0.000 (MB)
	Size of irrep 4 of tIjAb amplitudes:       0.000 (MW) /      0.000 (MB)
	Size of irrep 5 of tIjAb amplitudes:       0.000 (MW) /      0.001 (MB)
	Size of irrep 6 of tIjAb amplitudes:       0.000 (MW) /      0.000 (MB)
	Size of irrep 7 of tIjAb amplitudes:       0.000 (MW) /      0.000 (MB)
	Total:                                     0.000 (MW) /      0.002 (MB)

	Nuclear Rep. energy          =      0.00000000000000
	SCF energy                   =   -288.56999875527902
	One-electron energy          =     -4.52026050223441
	Two-electron (AA) energy     =      0.30185838423192
	Two-electron (BB) energy     =      0.00000000000000
	Two-electron (AB) energy     =      0.81964766141451
	Two-electron energy          =      1.12150604564643
	Reference energy             =   -288.56999875527902

*** tstop() called on n412-039.vsc4.prov at Tue Jan 26 18:14:06 2021
Module time:
	user time   =       0.03 seconds =       0.00 minutes
	system time =       0.08 seconds =       0.00 minutes
	total time  =          0 seconds =       0.00 minutes
Total time:
	user time   =       7.06 seconds =       0.12 minutes
	system time =       0.66 seconds =       0.01 minutes
	total time  =          2 seconds =       0.03 minutes
            **************************
            *                        *
            *        CCENERGY        *
            *                        *
            **************************

    Nuclear Rep. energy (wfn)     =    0.000000000000000
    SCF energy          (wfn)     = -288.569998755279016
    Reference energy    (file100) = -288.569998755279016

    Input parameters:
    -----------------
    Wave function   =     CCSD_T
    Reference wfn   =     UHF
    Brueckner       =     No
    Memory (Mbytes) =     250000.0
    Maxiter         =     50
    R_Convergence   =     1.0e-07
    E_Convergence   =     1.0e-06
    Restart         =     Yes
    DIIS            =     Yes
    AO Basis        =     NONE
    ABCD            =     NEW
    Cache Level     =     2
    Cache Type      =     LRU
    Print Level     =     1
    Num. of threads =     48
    # Amps to Print =     10
    Print MP2 Amps? =     No
    Analyze T2 Amps =     No
    Print Pair Ener =     No
    Local CC        =     No
    SCS-MP2         =     False
    SCSN-MP2        =     False
    SCS-CCSD        =     False

MP2 correlation energy -0.0355328940854904
                Solving CC Amplitude Equations
                ------------------------------
  Iter             Energy              RMS        T1Diag      D1Diag    New D1Diag    D2Diag
  ----     ---------------------    ---------   ----------  ----------  ----------   --------
     0        -0.035532894085490    0.000e+00    0.000000    0.000000    0.000000    0.000000
     1        -0.047207244408581    5.861e-02    0.008247    0.000000    0.000000    0.000000
     2        -0.054172711310239    2.554e-02    0.017072    0.000000    0.000000    0.000000
     3        -0.054381127259914    4.717e-03    0.018957    0.000000    0.000000    0.000000
     4        -0.054520812776433    8.939e-04    0.019090    0.000000    0.000000    0.000000
     5        -0.054475186232612    1.493e-04    0.019029    0.000000    0.000000    0.000000
     6        -0.054490969310635    4.721e-05    0.019045    0.000000    0.000000    0.000000
     7        -0.054486891428282    1.446e-05    0.019041    0.000000    0.000000    0.000000
     8        -0.054487279399307    1.942e-06    0.019042    0.000000    0.000000    0.000000
     9        -0.054487327494276    3.924e-07    0.019042    0.000000    0.000000    0.000000
    10        -0.054487331188727    7.248e-08    0.019042    0.000000    0.000000    0.000000

    Iterations converged.

    Largest TIA Amplitudes:
              0   1        -0.0254536413
              0   4         0.0177511793
              0   0        -0.0049426295
              0   3         0.0047006580
              1  18         0.0016898446
              1  17         0.0016005124
              0   7        -0.0002347015

    Largest Tia Amplitudes:
              0   0        -0.0069718421
              0   3         0.0039478827
              0   2         0.0025554509
              0   5         0.0014538207
              0   7         0.0000240395

    Largest TIJAB Amplitudes:
      1   0  19  14        -0.0215637029
      1   0  22  11        -0.0215637029
      1   0  19  15        -0.0155383884
      1   0  22  12        -0.0155383884
      1   0  18   3        -0.0131782887
      1   0  18   0         0.0085912663
      1   0  21  15         0.0071862724
      1   0  24  12         0.0071862724
      1   0  17   3        -0.0066132193
      1   0  21  14         0.0065742253

    Largest TIjAb Amplitudes:
      0   0  22  23        -0.1069765506
      0   0  19  20        -0.1069765506
      1   0   1  17         0.0606509684
      1   0  11  23         0.0542610642
      1   0  14  20         0.0542610642
      1   0   4  17        -0.0500620608
      1   0  12  23         0.0458937326
      1   0  15  20         0.0458937326
      0   0  19  22         0.0355280019
      0   0  22  25         0.0355280019

    SCF energy       (wfn)                    = -288.569998755279016
    Reference energy (file100)                = -288.569998755279016

    Opposite-spin MP2 correlation energy      =   -0.033251062501099
    Same-spin MP2 correlation energy          =   -0.002281831584391
    Singles MP2 correlation energy            =   -0.000000000000000
    MP2 correlation energy                    =   -0.035532894085490
      * MP2 total energy                      = -288.605531649364480

    Opposite-spin CCSD correlation energy     =   -0.051796429557196
    Same-spin CCSD correlation energy         =   -0.002690901631531
    Singles CCSD correlation energy           =    0.000000000000000
    CCSD correlation energy                   =   -0.054487331188727
      * CCSD total energy                     = -288.624486086467755

            **************************
            *                        *
            *        CCTRIPLES       *
            *                        *
            **************************

      * CCSD(T) total energy                     = -288.625206939341012
*** Psi4 exiting successfully. Buy a developer a beer!
