                               Psi4 1.4a3.dev88

  ==> Input File <==

--------------------------------------------------------------------------
# Any line starting with the # character is a comment line
memory 250000 mb
molecule molecule{
0 1
F          0.0000000000        0.0000000000       -0.0464431179
H          0.0000000000        0.0000000000        0.8753944384
}

set {
  reference rhf
  basis aug-cc-pV(d+d)Z
  scf_type OUT_OF_CORE
  freeze_core true
}

energy('ccsd(t)')
--------------------------------------------------------------------------

    Molecular point group: c2v

    Geometry (in Angstrom), charge = 0, multiplicity = 1:

       Center              X                  Y                   Z               Mass
    ------------   -----------------  -----------------  -----------------  -----------------
         F            0.000000000000     0.000000000000    -0.046438086971    18.998403162730
         H            0.000000000000     0.000000000000     0.875399469329     1.007825032230

  Charge       = 0
  Multiplicity = 1
  Basis Set: AUG-CC-PV(D+D)Z
    Blend: AUG-CC-PV(D+D)Z

    Orbital Energies [Eh]
    ---------------------

    Doubly Occupied:

       1A1   -26.311014     2A1    -1.605843     3A1    -0.769382
       1B1    -0.650275     1B2    -0.650275

  @RHF Final Energy:  -100.03324249779217

   => Energetics <=

    Nuclear Repulsion Energy =              5.1664144766955840
    One-Electron Energy =                -150.4257367048094522
    Two-Electron Energy =                  45.2260797303216862
    Total Energy =                       -100.0332424977921733

  Dipole Moment: [D]
     X:     0.0000      Y:     0.0000      Z:     1.9405     Total:     1.9405

      * MP2 total energy                      = -100.255794865629582
      * CCSD total energy                     = -100.259476218343679
      * CCSD(T) total energy                  = -100.263535917490273
*** Psi4 exiting successfully. Buy a developer a beer!
