                               Psi4 1.4a3.dev88

  ==> Input File <==

--------------------------------------------------------------------------
# Any line starting with the # character is a comment line
memory 250000 mb
molecule molecule{
0 1
F          0.0000000000        0.0000000000       -0.0464431179
H          0.0000000000        0.0000000000        0.8753944384
}

set {
  reference rhf
  basis aug-cc-pv(q+d)z
  scf_type OUT_OF_CORE
  freeze_core true
}

energy('ccsd(t)')
--------------------------------------------------------------------------

    Molecular point group: c2v

    Geometry (in Angstrom), charge = 0, multiplicity = 1:

       Center              X                  Y                   Z               Mass
    ------------   -----------------  -----------------  -----------------  -----------------
         F            0.000000000000     0.000000000000    -0.046438086971    18.998403162730
         H            0.000000000000     0.000000000000     0.875399469329     1.007825032230

  Charge       = 0
  Multiplicity = 1
  Basis Set: AUG-CC-PV(Q+D)Z
    Blend: AUG-CC-PV(Q+D)Z

    Orbital Energies [Eh]
    ---------------------

    Doubly Occupied:

       1A1   -26.295875     2A1    -1.599754     3A1    -0.766488
       1B1    -0.649955     1B2    -0.649955

  @RHF Final Energy:  -100.06830287755285

   => Energetics <=

    Nuclear Repulsion Energy =              5.1664144766955840
    One-Electron Energy =                -150.5453806788809175
    Two-Electron Energy =                  45.3106633246324648
    Total Energy =                       -100.0683028775528669

  Dipole Moment: [D]
     X:     0.0000      Y:     0.0000      Z:     1.9319     Total:     1.9319

      * MP2 total energy                      = -100.369749907509672
      * CCSD total energy                     = -100.369052236979201
      * CCSD(T) total energy                  = -100.377365211128293
*** Psi4 exiting successfully. Buy a developer a beer!
