                               Psi4 1.4a3.dev88

  ==> Input File <==

--------------------------------------------------------------------------
# Any line starting with the # character is a comment line
memory 250000 mb
molecule molecule{
0 2
H          0.0000000000        0.0000000000        0.0000000000
}

set {
  reference uhf
  basis aug-cc-pV(t+d)Z
  scf_type OUT_OF_CORE
  freeze_core true
}

energy('ccsd(t)')
--------------------------------------------------------------------------

    Molecular point group: d2h
    Geometry (in Angstrom), charge = 0, multiplicity = 2:

       Center              X                  Y                   Z               Mass
    ------------   -----------------  -----------------  -----------------  -----------------
         H            0.000000000000     0.000000000000     0.000000000000     1.007825032230

  Charge       = 0
  Multiplicity = 2
  Basis Set: AUG-CC-PV(T+D)Z
    Blend: AUG-CC-PV(T+D)Z

    Orbital Energies [Eh]
    ---------------------

    Alpha Occupied:

       1Ag    -0.499821

    Alpha Virtual:

       2Ag     0.057750     1B1u    0.205840     1B2u    0.205840
       1B3u    0.205840     3Ag     0.450835     4Ag     0.806883
       1B2g    0.806883     1B3g    0.806883     1B1g    0.806883
       5Ag     0.806883     2B1u    0.985070     2B2u    0.985070
       2B3u    0.985070     6Ag     2.567992     2B1g    3.839355
       2B2g    3.839355     2B3g    3.839355     7Ag     3.839355
       8Ag     3.839355     3B1u    4.046461     3B2u    4.046461
       3B3u    4.046461

    Beta Occupied:

    Beta Virtual:

       1Ag     0.015600     2Ag     0.123745     1B1u    0.232645
       1B2u    0.232645     1B3u    0.232645     3Ag     0.575552
       1B1g    0.827531     1B2g    0.827531     1B3g    0.827531
       4Ag     0.827531     5Ag     0.827531     2B1u    1.067542
       2B2u    1.067542     2B3u    1.067542     6Ag     2.694432
       2B2g    3.888770     2B3g    3.888770     2B1g    3.888770
       7Ag     3.888770     8Ag     3.888770     3B1u    4.128433
       3B2u    4.128433     3B3u    4.128433

    Final Occupation by Irrep:
             Ag   B1g   B2g   B3g    Au   B1u   B2u   B3u
    DOCC [     0,    0,    0,    0,    0,    0,    0,    0 ]
    SOCC [     1,    0,    0,    0,    0,    0,    0,    0 ]

  @UHF Final Energy:    -0.49982117602396

   => Energetics <=

    Nuclear Repulsion Energy =              0.0000000000000000
    One-Electron Energy =                  -0.4998211760239591
    Two-Electron Energy =                   0.0000000000000001
    Total Energy =                         -0.4998211760239591

  UHF NO Occupations:
  HONO-0 :    1 Ag 1.0000000
  LUNO+0 :    2 Ag 0.0000000
  LUNO+1 :    3 Ag 0.0000000
  LUNO+2 :    4 Ag 0.0000000
  LUNO+3 :    5 Ag 0.0000000

Computation Completed

Properties will be evaluated at   0.000000,   0.000000,   0.000000 [a0]

Properties computed using the SCF density matrix

  Nuclear Dipole Moment: [e a0]
     X:     0.0000      Y:     0.0000      Z:     0.0000

  Electronic Dipole Moment: [e a0]
     X:     0.0000      Y:     0.0000      Z:     0.0000

  Dipole Moment: [e a0]
     X:     0.0000      Y:     0.0000      Z:     0.0000     Total:     0.0000

  Dipole Moment: [D]
     X:     0.0000      Y:     0.0000      Z:     0.0000     Total:     0.0000

*** tstop() called on n412-040.vsc4.prov at Tue Jan 26 18:03:50 2021
Module time:
	user time   =       2.82 seconds =       0.05 minutes
	system time =       0.04 seconds =       0.00 minutes
	total time  =          0 seconds =       0.00 minutes
Total time:
	user time   =       2.82 seconds =       0.05 minutes
	system time =       0.04 seconds =       0.00 minutes
	total time  =          0 seconds =       0.00 minutes

*** tstart() called on n412-040.vsc4.prov
*** at Tue Jan 26 18:03:50 2021

	Wfn Parameters:
	--------------------
	Wavefunction         = CCSD_T
	Number of irreps     = 8
	Number of MOs        = 23
	Number of active MOs = 23
	AO-Basis             = NONE
	Semicanonical        = false
	Reference            = UHF
	Print Level          = 1

	IRREP	# MOs	# FZDC	# DOCC	# SOCC	# VIRT	# FZVR
	-----	-----	------	------	------	------	------
	 Ag	   8	    0	    0	    1	    7	    0
	 B1g	   2	    0	    0	    0	    2	    0
	 B2g	   2	    0	    0	    0	    2	    0
	 B3g	   2	    0	    0	    0	    2	    0
	 Au	   0	    0	    0	    0	    0	    0
	 B1u	   3	    0	    0	    0	    3	    0
	 B2u	   3	    0	    0	    0	    3	    0
	 B3u	   3	    0	    0	    0	    3	    0
	Transforming integrals...
	IWL integrals will be deleted.
	(OO|OO)...
	Presorting SO-basis two-electron integrals.
	Sorting File: SO Ints (nn|nn) nbuckets = 1
	Constructing frozen core operators
	Starting AA/AB first half-transformation.
	Sorting AA/AB half-transformed integrals.
	Starting BB first half-transformation.
	Sorting BB half-transformed integrals.
	First half integral transformation complete.
	Starting AA second half-transformation.
	Starting AB second half-transformation.
	Starting BB second half-transformation.
	Two-electron integral transformation complete.
	(OO|OV)...
	Starting AA second half-transformation.
	Starting AB second half-transformation.
	Starting BB second half-transformation.
	Two-electron integral transformation complete.
	(OO|VV)...
	Starting AA second half-transformation.
	Starting AB second half-transformation.
	Starting BB second half-transformation.
	Two-electron integral transformation complete.
	(OV|OO)...
	Starting AA/AB first half-transformation.
	Sorting AA/AB half-transformed integrals.
	Starting BB first half-transformation.
	Sorting BB half-transformed integrals.
	First half integral transformation complete.
	Starting AA second half-transformation.
	Starting AB second half-transformation.
	Starting BB second half-transformation.
	Two-electron integral transformation complete.
	(OV|OV)...
	Starting AA second half-transformation.
	Starting AB second half-transformation.
	Starting BB second half-transformation.
	Two-electron integral transformation complete.
	(OV|VV)...
	Starting AA second half-transformation.
	Starting AB second half-transformation.
	Starting BB second half-transformation.
	Two-electron integral transformation complete.
	(VV|OO)...
	Starting AA/AB first half-transformation.
	Sorting AA/AB half-transformed integrals.
	Starting BB first half-transformation.
	Sorting BB half-transformed integrals.
	First half integral transformation complete.
	Starting AA second half-transformation.
	Starting AB second half-transformation.
	Starting BB second half-transformation.
	Two-electron integral transformation complete.
	(VV|OV)...
	Starting AA second half-transformation.
	Starting AB second half-transformation.
	Starting BB second half-transformation.
	Two-electron integral transformation complete.
	(VV|VV)...
	Starting AA second half-transformation.
	Starting AB second half-transformation.
	Starting BB second half-transformation.
	Two-electron integral transformation complete.
	Frozen core energy     =      0.00000000000000

	Size of irrep 0 of <AB|CD> integrals:      0.001 (MW) /      0.009 (MB)
	Size of irrep 1 of <AB|CD> integrals:      0.001 (MW) /      0.006 (MB)
	Size of irrep 2 of <AB|CD> integrals:      0.001 (MW) /      0.006 (MB)
	Size of irrep 3 of <AB|CD> integrals:      0.001 (MW) /      0.006 (MB)
	Size of irrep 4 of <AB|CD> integrals:      0.000 (MW) /      0.003 (MB)
	Size of irrep 5 of <AB|CD> integrals:      0.001 (MW) /      0.009 (MB)
	Size of irrep 6 of <AB|CD> integrals:      0.001 (MW) /      0.009 (MB)
	Size of irrep 7 of <AB|CD> integrals:      0.001 (MW) /      0.009 (MB)
	Total:                                     0.007 (MW) /      0.055 (MB)

	Size of irrep 0 of <ab|cd> integrals:      0.002 (MW) /      0.013 (MB)
	Size of irrep 1 of <ab|cd> integrals:      0.001 (MW) /      0.007 (MB)
	Size of irrep 2 of <ab|cd> integrals:      0.001 (MW) /      0.007 (MB)
	Size of irrep 3 of <ab|cd> integrals:      0.001 (MW) /      0.007 (MB)
	Size of irrep 4 of <ab|cd> integrals:      0.000 (MW) /      0.003 (MB)
	Size of irrep 5 of <ab|cd> integrals:      0.001 (MW) /      0.010 (MB)
	Size of irrep 6 of <ab|cd> integrals:      0.001 (MW) /      0.010 (MB)
	Size of irrep 7 of <ab|cd> integrals:      0.001 (MW) /      0.010 (MB)
	Total:                                     0.008 (MW) /      0.067 (MB)

	Size of irrep 0 of <Ab|Cd> integrals:      0.009 (MW) /      0.072 (MB)
	Size of irrep 1 of <Ab|Cd> integrals:      0.003 (MW) /      0.025 (MB)
	Size of irrep 2 of <Ab|Cd> integrals:      0.003 (MW) /      0.025 (MB)
	Size of irrep 3 of <Ab|Cd> integrals:      0.003 (MW) /      0.025 (MB)
	Size of irrep 4 of <Ab|Cd> integrals:      0.001 (MW) /      0.010 (MB)
	Size of irrep 5 of <Ab|Cd> integrals:      0.005 (MW) /      0.038 (MB)
	Size of irrep 6 of <Ab|Cd> integrals:      0.005 (MW) /      0.038 (MB)
	Size of irrep 7 of <Ab|Cd> integrals:      0.005 (MW) /      0.038 (MB)
	Total:                                     0.034 (MW) /      0.272 (MB)

	Size of irrep 0 of <IA|BC> integrals:      0.001 (MW) /      0.005 (MB)
	Size of irrep 1 of <IA|BC> integrals:      0.000 (MW) /      0.001 (MB)
	Size of irrep 2 of <IA|BC> integrals:      0.000 (MW) /      0.001 (MB)
	Size of irrep 3 of <IA|BC> integrals:      0.000 (MW) /      0.001 (MB)
	Size of irrep 4 of <IA|BC> integrals:      0.000 (MW) /      0.000 (MB)
	Size of irrep 5 of <IA|BC> integrals:      0.000 (MW) /      0.002 (MB)
	Size of irrep 6 of <IA|BC> integrals:      0.000 (MW) /      0.002 (MB)
	Size of irrep 7 of <IA|BC> integrals:      0.000 (MW) /      0.002 (MB)
	Total:                                     0.002 (MW) /      0.012 (MB)

	Size of irrep 0 of <ia|bc> integrals:      0.000 (MW) /      0.000 (MB)
	Size of irrep 1 of <ia|bc> integrals:      0.000 (MW) /      0.000 (MB)
	Size of irrep 2 of <ia|bc> integrals:      0.000 (MW) /      0.000 (MB)
	Size of irrep 3 of <ia|bc> integrals:      0.000 (MW) /      0.000 (MB)
	Size of irrep 4 of <ia|bc> integrals:      0.000 (MW) /      0.000 (MB)
	Size of irrep 5 of <ia|bc> integrals:      0.000 (MW) /      0.000 (MB)
	Size of irrep 6 of <ia|bc> integrals:      0.000 (MW) /      0.000 (MB)
	Size of irrep 7 of <ia|bc> integrals:      0.000 (MW) /      0.000 (MB)
	Total:                                     0.000 (MW) /      0.000 (MB)

	Size of irrep 0 of <Ia|Bc> integrals:      0.001 (MW) /      0.006 (MB)
	Size of irrep 1 of <Ia|Bc> integrals:      0.000 (MW) /      0.001 (MB)
	Size of irrep 2 of <Ia|Bc> integrals:      0.000 (MW) /      0.001 (MB)
	Size of irrep 3 of <Ia|Bc> integrals:      0.000 (MW) /      0.001 (MB)
	Size of irrep 4 of <Ia|Bc> integrals:      0.000 (MW) /      0.000 (MB)
	Size of irrep 5 of <Ia|Bc> integrals:      0.000 (MW) /      0.002 (MB)
	Size of irrep 6 of <Ia|Bc> integrals:      0.000 (MW) /      0.002 (MB)
	Size of irrep 7 of <Ia|Bc> integrals:      0.000 (MW) /      0.002 (MB)
	Total:                                     0.002 (MW) /      0.014 (MB)

	Size of irrep 0 of <iA|bC> integrals:      0.000 (MW) /      0.000 (MB)
	Size of irrep 1 of <iA|bC> integrals:      0.000 (MW) /      0.000 (MB)
	Size of irrep 2 of <iA|bC> integrals:      0.000 (MW) /      0.000 (MB)
	Size of irrep 3 of <iA|bC> integrals:      0.000 (MW) /      0.000 (MB)
	Size of irrep 4 of <iA|bC> integrals:      0.000 (MW) /      0.000 (MB)
	Size of irrep 5 of <iA|bC> integrals:      0.000 (MW) /      0.000 (MB)
	Size of irrep 6 of <iA|bC> integrals:      0.000 (MW) /      0.000 (MB)
	Size of irrep 7 of <iA|bC> integrals:      0.000 (MW) /      0.000 (MB)
	Total:                                     0.000 (MW) /      0.000 (MB)

	Size of irrep 0 of tIjAb amplitudes:       0.000 (MW) /      0.000 (MB)
	Size of irrep 1 of tIjAb amplitudes:       0.000 (MW) /      0.000 (MB)
	Size of irrep 2 of tIjAb amplitudes:       0.000 (MW) /      0.000 (MB)
	Size of irrep 3 of tIjAb amplitudes:       0.000 (MW) /      0.000 (MB)
	Size of irrep 4 of tIjAb amplitudes:       0.000 (MW) /      0.000 (MB)
	Size of irrep 5 of tIjAb amplitudes:       0.000 (MW) /      0.000 (MB)
	Size of irrep 6 of tIjAb amplitudes:       0.000 (MW) /      0.000 (MB)
	Size of irrep 7 of tIjAb amplitudes:       0.000 (MW) /      0.000 (MB)
	Total:                                     0.000 (MW) /      0.000 (MB)

	Nuclear Rep. energy          =      0.00000000000000
	SCF energy                   =     -0.49982117602396
	One-electron energy          =     -0.49982117602396
	Two-electron (AA) energy     =      0.00000000000000
	Two-electron (BB) energy     =      0.00000000000000
	Two-electron (AB) energy     =      0.00000000000000
	Two-electron energy          =      0.00000000000000
	Reference energy             =     -0.49982117602396

*** tstop() called on n412-040.vsc4.prov at Tue Jan 26 18:03:51 2021
Module time:
	user time   =       0.04 seconds =       0.00 minutes
	system time =       0.04 seconds =       0.00 minutes
	total time  =          1 seconds =       0.02 minutes
Total time:
	user time   =       2.86 seconds =       0.05 minutes
	system time =       0.08 seconds =       0.00 minutes
	total time  =          1 seconds =       0.02 minutes
            **************************
            *                        *
            *        CCENERGY        *
            *                        *
            **************************

    Nuclear Rep. energy (wfn)     =    0.000000000000000
    SCF energy          (wfn)     =   -0.499821176023959
    Reference energy    (file100) =   -0.499821176023959

    Input parameters:
    -----------------
    Wave function   =     CCSD_T
    Reference wfn   =     UHF
    Brueckner       =     No
    Memory (Mbytes) =     250000.0
    Maxiter         =     50
    R_Convergence   =     1.0e-07
    E_Convergence   =     1.0e-06
    Restart         =     Yes
    DIIS            =     Yes
    AO Basis        =     NONE
    ABCD            =     NEW
    Cache Level     =     2
    Cache Type      =     LRU
    Print Level     =     1
    Num. of threads =     48
    # Amps to Print =     10
    Print MP2 Amps? =     No
    Analyze T2 Amps =     No
    Print Pair Ener =     No
    Local CC        =     No
    SCS-MP2         =     False
    SCSN-MP2        =     False
    SCS-CCSD        =     False

MP2 correlation energy -0.0000000000000000
                Solving CC Amplitude Equations
                ------------------------------
  Iter             Energy              RMS        T1Diag      D1Diag    New D1Diag    D2Diag
  ----     ---------------------    ---------   ----------  ----------  ----------   --------
     0        -0.000000000000000    0.000e+00    0.000000    0.000000    0.000000    0.000000
     1        -0.000000000000000    1.388e-16    0.000000    0.000000    0.000000    0.000000

    Iterations converged.

    SCF energy       (wfn)                    =   -0.499821176023959
    Reference energy (file100)                =   -0.499821176023959

    Opposite-spin MP2 correlation energy      =    0.000000000000000
    Same-spin MP2 correlation energy          =    0.000000000000000
    Singles MP2 correlation energy            =   -0.000000000000000
    MP2 correlation energy                    =   -0.000000000000000
      * MP2 total energy                      =   -0.499821176023959

    Opposite-spin CCSD correlation energy     =    0.000000000000000
    Same-spin CCSD correlation energy         =    0.000000000000000
    Singles CCSD correlation energy           =   -0.000000000000000
    CCSD correlation energy                   =   -0.000000000000000
      * CCSD total energy                     =   -0.499821176023959

            **************************
            *                        *
            *        CCTRIPLES       *
            *                        *
            **************************

    Wave function   =    CCSD_T
    Reference wfn   =      UHF

    Nuclear Rep. energy (wfn)                =    0.000000000000000
    SCF energy          (wfn)                =   -0.499821176023959
    Reference energy    (file100)            =   -0.499821176023959
    CCSD energy         (file100)            =   -0.000000000000000
    Total CCSD energy   (file100)            =   -0.499821176023959

    Number of ijk index combinations:
    Spin Case AAA:                                   0
    Spin Case BBB:                                   0
    Spin Case AAB:                                   0
    Spin Case ABB:                                   0
    AAA (T) energy                             =    0.000000000000000
    BBB (T) energy                             =    0.000000000000000
    AAB (T) energy                             =    0.000000000000000
    ABB (T) energy                             =    0.000000000000000
    (T) energy                                   =    0.000000000000000
      * CCSD(T) total energy                     =   -0.499821176023959

    Psi4 stopped on: Tuesday, 26 January 2021 06:03PM
    Psi4 wall time for execution: 0:00:00.84

*** Psi4 exiting successfully. Buy a developer a beer!
