                               Psi4 1.4a3.dev88

  ==> Input File <==

--------------------------------------------------------------------------
# Any line starting with the # character is a comment line
memory 250000 mb
molecule molecule{
0 2
H          0.0000000000        0.0000000000        0.0000000000
}

set {
  reference uhf
  basis aug-cc-pv(5+d)z
  scf_type OUT_OF_CORE
  freeze_core true
}

energy('ccsd(t)')
--------------------------------------------------------------------------

    Molecular point group: d2h
    Geometry (in Angstrom), charge = 0, multiplicity = 2:

       Center              X                  Y                   Z               Mass
    ------------   -----------------  -----------------  -----------------  -----------------
         H            0.000000000000     0.000000000000     0.000000000000     1.007825032230

  Charge       = 0
  Multiplicity = 2
  Basis Set: AUG-CC-PV(5+D)Z
    Blend: AUG-CC-PV(5+D)Z

    Orbital Energies [Eh]
    ---------------------

    Alpha Occupied:

       1Ag    -0.499995

    Alpha Virtual:

       2Ag     0.041364     1B2u    0.150871     1B3u    0.150871
       1B1u    0.150871     3Ag     0.262158     4Ag     0.496403
       1B2g    0.496403     1B1g    0.496403     1B3g    0.496403
       5Ag     0.496403     2B3u    0.624891     2B1u    0.624891
       2B2u    0.624891     6Ag     0.987901     3B3u    1.168996
       3B2u    1.168996     4B2u    1.168996     4B3u    1.168996
       1Au     1.168996     3B1u    1.168996     4B1u    1.168996
       2B1g    1.803781     2B2g    1.803781     7Ag     1.803781
       8Ag     1.803781     2B3g    1.803781     5B3u    2.008393
       5B2u    2.008393     5B1u    2.008393     9Ag     2.925805
       3B3g    2.925805     3B1g    2.925805     3B2g    2.925805
       4B2g    2.925805     4B3g    2.925805    10Ag     2.925805
      11Ag     2.925805     4B1g    2.925805    12Ag     3.170515
       6B3u    4.140511     6B2u    4.140511     6B1u    4.140511
       7B2u    4.140511     7B3u    4.140511     2Au     4.140511
       7B1u    4.140511     5B1g    5.125807     5B3g    5.125807
      13Ag     5.125807     5B2g    5.125807    14Ag     5.125807
       8B1u    5.812589     8B2u    5.812589     8B3u    5.812589
      15Ag    12.797536     9B3u   12.848520     3Au    12.848520
       9B2u   12.848520     9B1u   12.848520    10B1u   12.848520
      10B2u   12.848520    10B3u   12.848520     6B3g   13.122860
       6B1g   13.122860     7B1g   13.122860     7B3g   13.122860
       6B2g   13.122860    16Ag    13.122860    17Ag    13.122860
       7B2g   13.122860    18Ag    13.122860     8B1g   13.844753
       8B2g   13.844753    19Ag    13.844753     8B3g   13.844753
      20Ag    13.844753    11B1u   16.710981    11B2u   16.710981
      11B3u   16.710981

    Beta Occupied:

    Beta Virtual:

       1Ag     0.012807     2Ag     0.090208     1B3u    0.165944
       1B1u    0.165944     1B2u    0.165944     3Ag     0.349165
       4Ag     0.505498     1B3g    0.505498     1B2g    0.505498
       1B1g    0.505498     5Ag     0.505498     2B1u    0.683810
       2B3u    0.683810     2B2u    0.683810     6Ag     1.087743
       3B3u    1.177097     3B1u    1.177097     3B2u    1.177097
       4B3u    1.177097     1Au     1.177097     4B1u    1.177097
       4B2u    1.177097     7Ag     1.834806     2B1g    1.834806
       2B3g    1.834806     8Ag     1.834806     2B2g    1.834806
       5B3u    2.080026     5B2u    2.080026     5B1u    2.080026
       9Ag     2.935949     3B3g    2.935949     3B1g    2.935949
       3B2g    2.935949     4B1g    2.935949     4B3g    2.935949
       4B2g    2.935949    10Ag     2.935949    11Ag     2.935949
      12Ag     3.259080     6B1u    4.163371     6B2u    4.163371
       6B3u    4.163371     2Au     4.163371     7B2u    4.163371
       7B3u    4.163371     7B1u    4.163371     5B1g    5.163552
       5B3g    5.163552    13Ag     5.163552     5B2g    5.163552
      14Ag     5.163552     8B1u    5.871008     8B2u    5.871008
       8B3u    5.871008    15Ag    12.856708     9B3u   12.874706
       3Au    12.874706     9B2u   12.874706     9B1u   12.874706
      10B2u   12.874706    10B3u   12.874706    10B1u   12.874706
       6B3g   13.142786     6B1g   13.142786     7B1g   13.142786
       6B2g   13.142786     7B2g   13.142786     7B3g   13.142786
      16Ag    13.142786    17Ag    13.142786    18Ag    13.142786
       8B1g   13.877886     8B2g   13.877886     8B3g   13.877886
      19Ag    13.877886    20Ag    13.877886    11B1u   16.750689
      11B2u   16.750689    11B3u   16.750689

    Final Occupation by Irrep:
             Ag   B1g   B2g   B3g    Au   B1u   B2u   B3u
    DOCC [     0,    0,    0,    0,    0,    0,    0,    0 ]
    SOCC [     1,    0,    0,    0,    0,    0,    0,    0 ]

  @UHF Final Energy:    -0.49999478458371

   => Energetics <=

    Nuclear Repulsion Energy =              0.0000000000000000
    One-Electron Energy =                  -0.4999947845837087
    Two-Electron Energy =                   0.0000000000000000
    Total Energy =                         -0.4999947845837087

  UHF NO Occupations:
  HONO-0 :    1 Ag 1.0000000
  LUNO+0 :    2 Ag 0.0000000
  LUNO+1 :    3 Ag 0.0000000
  LUNO+2 :    4 Ag 0.0000000
  LUNO+3 :    5 Ag 0.0000000

Computation Completed

Properties will be evaluated at   0.000000,   0.000000,   0.000000 [a0]

Properties computed using the SCF density matrix

  Nuclear Dipole Moment: [e a0]
     X:     0.0000      Y:     0.0000      Z:     0.0000

  Electronic Dipole Moment: [e a0]
     X:     0.0000      Y:     0.0000      Z:     0.0000

  Dipole Moment: [e a0]
     X:     0.0000      Y:     0.0000      Z:     0.0000     Total:     0.0000

  Dipole Moment: [D]
     X:     0.0000      Y:     0.0000      Z:     0.0000     Total:     0.0000

*** tstop() called on n412-041.vsc4.prov at Wed Jan 20 21:58:53 2021
Module time:
	user time   =       6.45 seconds =       0.11 minutes
	system time =       0.19 seconds =       0.00 minutes
	total time  =          3 seconds =       0.05 minutes
Total time:
	user time   =       6.45 seconds =       0.11 minutes
	system time =       0.19 seconds =       0.00 minutes
	total time  =          3 seconds =       0.05 minutes

*** tstart() called on n412-041.vsc4.prov
*** at Wed Jan 20 21:58:53 2021

	Wfn Parameters:
	--------------------
	Wavefunction         = CCSD_T
	Number of irreps     = 8
	Number of MOs        = 80
	Number of active MOs = 80
	AO-Basis             = NONE
	Semicanonical        = false
	Reference            = UHF
	Print Level          = 1

	IRREP	# MOs	# FZDC	# DOCC	# SOCC	# VIRT	# FZVR
	-----	-----	------	------	------	------	------
	 Ag	   20	    0	    0	    1	    19	    0
	 B1g	   8	    0	    0	    0	    8	    0
	 B2g	   8	    0	    0	    0	    8	    0
	 B3g	   8	    0	    0	    0	    8	    0
	 Au	   3	    0	    0	    0	    3	    0
	 B1u	   11	    0	    0	    0	    11	    0
	 B2u	   11	    0	    0	    0	    11	    0
	 B3u	   11	    0	    0	    0	    11	    0
	Transforming integrals...
	IWL integrals will be deleted.
	(OO|OO)...
	Presorting SO-basis two-electron integrals.
	Sorting File: SO Ints (nn|nn) nbuckets = 1
	Constructing frozen core operators
	Starting AA/AB first half-transformation.
	Sorting AA/AB half-transformed integrals.
	Starting BB first half-transformation.
	Sorting BB half-transformed integrals.
	First half integral transformation complete.
	Starting AA second half-transformation.
	Starting AB second half-transformation.
	Starting BB second half-transformation.
	Two-electron integral transformation complete.
	(OO|OV)...
	Starting AA second half-transformation.
	Starting AB second half-transformation.
	Starting BB second half-transformation.
	Two-electron integral transformation complete.
	(OO|VV)...
	Starting AA second half-transformation.
	Starting AB second half-transformation.
	Starting BB second half-transformation.
	Two-electron integral transformation complete.
	(OV|OO)...
	Starting AA/AB first half-transformation.
	Sorting AA/AB half-transformed integrals.
	Starting BB first half-transformation.
	Sorting BB half-transformed integrals.
	First half integral transformation complete.
	Starting AA second half-transformation.
	Starting AB second half-transformation.
	Starting BB second half-transformation.
	Two-electron integral transformation complete.
	(OV|OV)...
	Starting AA second half-transformation.
	Starting AB second half-transformation.
	Starting BB second half-transformation.
	Two-electron integral transformation complete.
	(OV|VV)...
	Starting AA second half-transformation.
	Starting AB second half-transformation.
	Starting BB second half-transformation.
	Two-electron integral transformation complete.
	(VV|OO)...
	Starting AA/AB first half-transformation.
	Sorting AA/AB half-transformed integrals.
	Starting BB first half-transformation.
	Sorting BB half-transformed integrals.
	First half integral transformation complete.
	Starting AA second half-transformation.
	Starting AB second half-transformation.
	Starting BB second half-transformation.
	Two-electron integral transformation complete.
	(VV|OV)...
	Starting AA second half-transformation.
	Starting AB second half-transformation.
	Starting BB second half-transformation.
	Two-electron integral transformation complete.
	(VV|VV)...
	Starting AA second half-transformation.
	Starting AB second half-transformation.
	Starting BB second half-transformation.
	Two-electron integral transformation complete.
	Frozen core energy     =      0.00000000000000

	Size of irrep 0 of <AB|CD> integrals:      0.179 (MW) /      1.431 (MB)
	Size of irrep 1 of <AB|CD> integrals:      0.137 (MW) /      1.095 (MB)
	Size of irrep 2 of <AB|CD> integrals:      0.137 (MW) /      1.095 (MB)
	Size of irrep 3 of <AB|CD> integrals:      0.137 (MW) /      1.095 (MB)
	Size of irrep 4 of <AB|CD> integrals:      0.103 (MW) /      0.824 (MB)
	Size of irrep 5 of <AB|CD> integrals:      0.167 (MW) /      1.338 (MB)
	Size of irrep 6 of <AB|CD> integrals:      0.167 (MW) /      1.338 (MB)
	Size of irrep 7 of <AB|CD> integrals:      0.167 (MW) /      1.338 (MB)
	Total:                                     1.195 (MW) /      9.556 (MB)

	Size of irrep 0 of <ab|cd> integrals:      0.195 (MW) /      1.563 (MB)
	Size of irrep 1 of <ab|cd> integrals:      0.143 (MW) /      1.143 (MB)
	Size of irrep 2 of <ab|cd> integrals:      0.143 (MW) /      1.143 (MB)
	Size of irrep 3 of <ab|cd> integrals:      0.143 (MW) /      1.143 (MB)
	Size of irrep 4 of <ab|cd> integrals:      0.105 (MW) /      0.840 (MB)
	Size of irrep 5 of <ab|cd> integrals:      0.176 (MW) /      1.411 (MB)
	Size of irrep 6 of <ab|cd> integrals:      0.176 (MW) /      1.411 (MB)
	Size of irrep 7 of <ab|cd> integrals:      0.176 (MW) /      1.411 (MB)
	Total:                                     1.258 (MW) /     10.066 (MB)

	Size of irrep 0 of <Ab|Cd> integrals:      0.891 (MW) /      7.129 (MB)
	Size of irrep 1 of <Ab|Cd> integrals:      0.560 (MW) /      4.476 (MB)
	Size of irrep 2 of <Ab|Cd> integrals:      0.560 (MW) /      4.476 (MB)
	Size of irrep 3 of <Ab|Cd> integrals:      0.560 (MW) /      4.476 (MB)
	Size of irrep 4 of <Ab|Cd> integrals:      0.416 (MW) /      3.328 (MB)
	Size of irrep 5 of <Ab|Cd> integrals:      0.687 (MW) /      5.498 (MB)
	Size of irrep 6 of <Ab|Cd> integrals:      0.687 (MW) /      5.498 (MB)
	Size of irrep 7 of <Ab|Cd> integrals:      0.687 (MW) /      5.498 (MB)
	Total:                                     5.047 (MW) /     40.379 (MB)

	Size of irrep 0 of <IA|BC> integrals:      0.018 (MW) /      0.141 (MB)
	Size of irrep 1 of <IA|BC> integrals:      0.006 (MW) /      0.047 (MB)
	Size of irrep 2 of <IA|BC> integrals:      0.006 (MW) /      0.047 (MB)
	Size of irrep 3 of <IA|BC> integrals:      0.006 (MW) /      0.047 (MB)
	Size of irrep 4 of <IA|BC> integrals:      0.002 (MW) /      0.015 (MB)
	Size of irrep 5 of <IA|BC> integrals:      0.009 (MW) /      0.072 (MB)
	Size of irrep 6 of <IA|BC> integrals:      0.009 (MW) /      0.072 (MB)
	Size of irrep 7 of <IA|BC> integrals:      0.009 (MW) /      0.072 (MB)
	Total:                                     0.064 (MW) /      0.514 (MB)

	Size of irrep 0 of <ia|bc> integrals:      0.000 (MW) /      0.000 (MB)
	Size of irrep 1 of <ia|bc> integrals:      0.000 (MW) /      0.000 (MB)
	Size of irrep 2 of <ia|bc> integrals:      0.000 (MW) /      0.000 (MB)
	Size of irrep 3 of <ia|bc> integrals:      0.000 (MW) /      0.000 (MB)
	Size of irrep 4 of <ia|bc> integrals:      0.000 (MW) /      0.000 (MB)
	Size of irrep 5 of <ia|bc> integrals:      0.000 (MW) /      0.000 (MB)
	Size of irrep 6 of <ia|bc> integrals:      0.000 (MW) /      0.000 (MB)
	Size of irrep 7 of <ia|bc> integrals:      0.000 (MW) /      0.000 (MB)
	Total:                                     0.000 (MW) /      0.000 (MB)

	Size of irrep 0 of <Ia|Bc> integrals:      0.019 (MW) /      0.151 (MB)
	Size of irrep 1 of <Ia|Bc> integrals:      0.006 (MW) /      0.048 (MB)
	Size of irrep 2 of <Ia|Bc> integrals:      0.006 (MW) /      0.048 (MB)
	Size of irrep 3 of <Ia|Bc> integrals:      0.006 (MW) /      0.048 (MB)
	Size of irrep 4 of <Ia|Bc> integrals:      0.002 (MW) /      0.015 (MB)
	Size of irrep 5 of <Ia|Bc> integrals:      0.009 (MW) /      0.073 (MB)
	Size of irrep 6 of <Ia|Bc> integrals:      0.009 (MW) /      0.073 (MB)
	Size of irrep 7 of <Ia|Bc> integrals:      0.009 (MW) /      0.073 (MB)
	Total:                                     0.066 (MW) /      0.529 (MB)

	Size of irrep 0 of <iA|bC> integrals:      0.000 (MW) /      0.000 (MB)
	Size of irrep 1 of <iA|bC> integrals:      0.000 (MW) /      0.000 (MB)
	Size of irrep 2 of <iA|bC> integrals:      0.000 (MW) /      0.000 (MB)
	Size of irrep 3 of <iA|bC> integrals:      0.000 (MW) /      0.000 (MB)
	Size of irrep 4 of <iA|bC> integrals:      0.000 (MW) /      0.000 (MB)
	Size of irrep 5 of <iA|bC> integrals:      0.000 (MW) /      0.000 (MB)
	Size of irrep 6 of <iA|bC> integrals:      0.000 (MW) /      0.000 (MB)
	Size of irrep 7 of <iA|bC> integrals:      0.000 (MW) /      0.000 (MB)
	Total:                                     0.000 (MW) /      0.000 (MB)

	Size of irrep 0 of tIjAb amplitudes:       0.000 (MW) /      0.000 (MB)
	Size of irrep 1 of tIjAb amplitudes:       0.000 (MW) /      0.000 (MB)
	Size of irrep 2 of tIjAb amplitudes:       0.000 (MW) /      0.000 (MB)
	Size of irrep 3 of tIjAb amplitudes:       0.000 (MW) /      0.000 (MB)
	Size of irrep 4 of tIjAb amplitudes:       0.000 (MW) /      0.000 (MB)
	Size of irrep 5 of tIjAb amplitudes:       0.000 (MW) /      0.000 (MB)
	Size of irrep 6 of tIjAb amplitudes:       0.000 (MW) /      0.000 (MB)
	Size of irrep 7 of tIjAb amplitudes:       0.000 (MW) /      0.000 (MB)
	Total:                                     0.000 (MW) /      0.000 (MB)

	Nuclear Rep. energy          =      0.00000000000000
	SCF energy                   =     -0.49999478458371
	One-electron energy          =     -0.49999478458371
	Two-electron (AA) energy     =      0.00000000000000
	Two-electron (BB) energy     =      0.00000000000000
	Two-electron (AB) energy     =      0.00000000000000
	Two-electron energy          =      0.00000000000000
	Reference energy             =     -0.49999478458371

*** tstop() called on n412-041.vsc4.prov at Wed Jan 20 21:58:57 2021
Module time:
	user time   =       0.64 seconds =       0.01 minutes
	system time =       0.49 seconds =       0.01 minutes
	total time  =          4 seconds =       0.07 minutes
Total time:
	user time   =       7.09 seconds =       0.12 minutes
	system time =       0.68 seconds =       0.01 minutes
	total time  =          7 seconds =       0.12 minutes
            **************************
            *                        *
            *        CCENERGY        *
            *                        *
            **************************

    Nuclear Rep. energy (wfn)     =    0.000000000000000
    SCF energy          (wfn)     =   -0.499994784583709
    Reference energy    (file100) =   -0.499994784583710

    Input parameters:
    -----------------
    Wave function   =     CCSD_T
    Reference wfn   =     UHF
    Brueckner       =     No
    Memory (Mbytes) =     250000.0
    Maxiter         =     50
    R_Convergence   =     1.0e-07
    E_Convergence   =     1.0e-06
    Restart         =     Yes
    DIIS            =     Yes
    AO Basis        =     NONE
    ABCD            =     NEW
    Cache Level     =     2
    Cache Type      =     LRU
    Print Level     =     1
    Num. of threads =     48
    # Amps to Print =     10
    Print MP2 Amps? =     No
    Analyze T2 Amps =     No
    Print Pair Ener =     No
    Local CC        =     No
    SCS-MP2         =     False
    SCSN-MP2        =     False
    SCS-CCSD        =     False

MP2 correlation energy -0.0000000000000000
                Solving CC Amplitude Equations
                ------------------------------
  Iter             Energy              RMS        T1Diag      D1Diag    New D1Diag    D2Diag
  ----     ---------------------    ---------   ----------  ----------  ----------   --------
     0        -0.000000000000000    0.000e+00    0.000000    0.000000    0.000000    0.000000
     1        -0.000000000000000    5.540e-16    0.000000    0.000000    0.000000    0.000000

    Iterations converged.

    SCF energy       (wfn)                    =   -0.499994784583709
    Reference energy (file100)                =   -0.499994784583710

    Opposite-spin MP2 correlation energy      =    0.000000000000000
    Same-spin MP2 correlation energy          =    0.000000000000000
    Singles MP2 correlation energy            =   -0.000000000000000
    MP2 correlation energy                    =   -0.000000000000000
      * MP2 total energy                      =   -0.499994784583710

    Opposite-spin CCSD correlation energy     =    0.000000000000000
    Same-spin CCSD correlation energy         =    0.000000000000000
    Singles CCSD correlation energy           =   -0.000000000000000
    CCSD correlation energy                   =   -0.000000000000000
      * CCSD total energy                     =   -0.499994784583710

            **************************
            *                        *
            *        CCTRIPLES       *
            *                        *
            **************************

    Wave function   =    CCSD_T
    Reference wfn   =      UHF

    Nuclear Rep. energy (wfn)                =    0.000000000000000
    SCF energy          (wfn)                =   -0.499994784583709
    Reference energy    (file100)            =   -0.499994784583710
    CCSD energy         (file100)            =   -0.000000000000000
    Total CCSD energy   (file100)            =   -0.499994784583710

    Number of ijk index combinations:
    Spin Case AAA:                                   0
    Spin Case BBB:                                   0
    Spin Case AAB:                                   0
    Spin Case ABB:                                   0
    AAA (T) energy                             =    0.000000000000000
    BBB (T) energy                             =    0.000000000000000
    AAB (T) energy                             =    0.000000000000000
    ABB (T) energy                             =    0.000000000000000

      * CCSD(T) total energy                     =   -0.499994784583710
*** Psi4 exiting successfully. Buy a developer a beer!
