                               Psi4 1.4a3.dev88

  ==> Input File <==

--------------------------------------------------------------------------
# Any line starting with the # character is a comment line
memory 250000 mb
molecule molecule{
0 2
H          0.0000000000        0.0000000000        0.0000000000
}

set {
  reference uhf
  basis aug-cc-pv(6+d)z
  scf_type OUT_OF_CORE
  freeze_core true
}

energy('ccsd(t)')
--------------------------------------------------------------------------

    Molecular point group: d2h
    Geometry (in Angstrom), charge = 0, multiplicity = 2:

       Center              X                  Y                   Z               Mass
    ------------   -----------------  -----------------  -----------------  -----------------
         H            0.000000000000     0.000000000000     0.000000000000     1.007825032230

  Charge       = 0
  Multiplicity = 2
  Basis Set: AUG-CC-PV(6+D)Z
    Blend: AUG-CC-PV(6+D)Z

    Orbital Energies [Eh]
    ---------------------

    Alpha Occupied:

       1Ag    -0.499999

    Alpha Virtual:

       2Ag     0.035258     1B3u    0.136091     1B2u    0.136091
       1B1u    0.136091     3Ag     0.204759     4Ag     0.397796
       1B1g    0.397796     1B3g    0.397796     1B2g    0.397796
       5Ag     0.397796     2B1u    0.545600     2B3u    0.545600
       2B2u    0.545600     6Ag     0.694793     3B1u    1.038427
       3B2u    1.038427     1Au     1.038427     4B2u    1.038427
       3B3u    1.038427     4B1u    1.038427     4B3u    1.038427
       7Ag     1.381554     2B3g    1.381554     2B1g    1.381554
       8Ag     1.381554     2B2g    1.381554     5B2u    1.689451
       5B3u    1.689451     5B1u    1.689451     9Ag     1.933597
      10Ag     2.159337     3B3g    2.159337    11Ag     2.159337
       3B1g    2.159337     3B2g    2.159337    12Ag     2.159337
       4B3g    2.159337     4B1g    2.159337     4B2g    2.159337
       6B1u    3.528151     6B2u    3.528151     6B3u    3.528151
       2Au     3.528151     7B1u    3.528151     7B3u    3.528151
       7B2u    3.528151     5B3g    3.694157    13Ag     3.694157
       5B1g    3.694157    14Ag     3.694157     5B2g    3.694157
       8B1u    4.363682     8B3u    4.363682     3Au     4.363682
       9B1u    4.363682     9B3u    4.363682     8B2u    4.363682
       4Au     4.363682     9B2u    4.363682    10B1u    4.363682
      10B2u    4.363682    10B3u    4.363682    11B2u    4.650637
      11B1u    4.650637    11B3u    4.650637    15Ag     5.224066
       6B1g    7.369393     6B3g    7.369393    16Ag     7.369393
       6B2g    7.369393     7B2g    7.369393    17Ag     7.369393
       7B1g    7.369393    18Ag     7.369393     7B3g    7.369393
       8B1g    9.074825     8B3g    9.074825    19Ag     9.074825
       8B2g    9.074825    20Ag     9.074825    12B1u    9.330215
      12B3u    9.330215    13B1u    9.330215    12B2u    9.330215
       5Au     9.330215    13B2u    9.330215    13B3u    9.330215
      14B1u   12.405421    14B2u   12.405421    14B3u   12.405421
      15B1u   17.499727    15B3u   17.499727     6Au    17.499727
      15B2u   17.499727     7Au    17.499727    16B2u   17.499727
      16B1u   17.499727    16B3u   17.499727    17B3u   17.499727
      17B1u   17.499727    17B2u   17.499727    21Ag    19.131204
      22Ag    20.248599     9B1g   20.248599    23Ag    20.248599
      24Ag    20.248599     9B3g   20.248599    10B1g   20.248599
       9B2g   20.248599    10B3g   20.248599    10B2g   20.248599
      11B1g   22.425397    25Ag    22.425397    11B3g   22.425397
      11B2g   22.425397    26Ag    22.425397    18B1u   23.584376
      18B3u   23.584376    18B2u   23.584376    19B2u   23.584376
       8Au    23.584376    19B3u   23.584376    19B1u   23.584376
      20B1u   33.908638    20B2u   33.908638    20B3u   33.908638

    Beta Occupied:

    Beta Virtual:

       1Ag     0.011616     2Ag     0.077306     1B3u    0.148391
       1B2u    0.148391     1B1u    0.148391     3Ag     0.277591
       1B3g    0.403678     4Ag     0.403678     1B1g    0.403678
       5Ag     0.403678     1B2g    0.403678     2B2u    0.597947
       2B3u    0.597947     2B1u    0.597947     6Ag     0.781119
       3B3u    1.045033     3B2u    1.045033     4B2u    1.045033
       1Au     1.045033     3B1u    1.045033     4B1u    1.045033
       4B3u    1.045033     7Ag     1.406037     2B1g    1.406037
       2B2g    1.406037     8Ag     1.406037     2B3g    1.406037
       5B2u    1.757976     5B3u    1.757976     5B1u    1.757976
       9Ag     2.015411    10Ag     2.166071    11Ag     2.166071
       3B1g    2.166071     4B1g    2.166071     3B2g    2.166071
       4B2g    2.166071    12Ag     2.166071     3B3g    2.166071
       4B3g    2.166071     6B1u    3.548048     6B3u    3.548048
       7B1u    3.548048     6B2u    3.548048     2Au     3.548048
       7B3u    3.548048     7B2u    3.548048    13Ag     3.728457
       5B3g    3.728457     5B1g    3.728457    14Ag     3.728457
       5B2g    3.728457     8B1u    4.371012     8B3u    4.371012
       3Au     4.371012     4Au     4.371012     9B1u    4.371012
       8B2u    4.371012     9B3u    4.371012    10B1u    4.371012
       9B2u    4.371012    10B3u    4.371012    10B2u    4.371012
      11B2u    4.709752    11B1u    4.709752    11B3u    4.709752
      15Ag     5.292946     6B1g    7.385550    16Ag     7.385550
       6B2g    7.385550     6B3g    7.385550     7B2g    7.385550
       7B1g    7.385550    17Ag     7.385550     7B3g    7.385550
      18Ag     7.385550     8B1g    9.107633    19Ag     9.107633
       8B3g    9.107633     8B2g    9.107633    20Ag     9.107633
      12B1u    9.353720    13B1u    9.353720    12B3u    9.353720
      12B2u    9.353720     5Au     9.353720    13B2u    9.353720
      13B3u    9.353720    14B1u   12.447391    14B2u   12.447391
      14B3u   12.447391    15B3u   17.513691     6Au    17.513691
      15B1u   17.513691    16B1u   17.513691     7Au    17.513691
      15B2u   17.513691    16B2u   17.513691    16B3u   17.513691
      17B3u   17.513691    17B1u   17.513691    17B2u   17.513691
      21Ag    19.176617    22Ag    20.265802     9B1g   20.265802
       9B3g   20.265802    23Ag    20.265802    24Ag    20.265802
      10B1g   20.265802    10B3g   20.265802     9B2g   20.265802
      10B2g   20.265802    11B1g   22.451578    25Ag    22.451578
      11B2g   22.451578    11B3g   22.451578    26Ag    22.451578
      18B1u   23.605114    18B2u   23.605114    18B3u   23.605114
      19B2u   23.605114     8Au    23.605114    19B3u   23.605114
      19B1u   23.605114    20B1u   33.934552    20B3u   33.934552
      20B2u   33.934552

    Final Occupation by Irrep:
             Ag   B1g   B2g   B3g    Au   B1u   B2u   B3u
    DOCC [     0,    0,    0,    0,    0,    0,    0,    0 ]
    SOCC [     1,    0,    0,    0,    0,    0,    0,    0 ]

  @UHF Final Energy:    -0.49999927639681

   => Energetics <=

    Nuclear Repulsion Energy =              0.0000000000000000
    One-Electron Energy =                  -0.4999992763968080
    Two-Electron Energy =                  -0.0000000000000001
    Total Energy =                         -0.4999992763968081

  UHF NO Occupations:
  HONO-0 :    1 Ag 1.0000000
  LUNO+0 :    2 Ag 0.0000000
  LUNO+1 :    3 Ag 0.0000000
  LUNO+2 :    4 Ag 0.0000000
  LUNO+3 :    5 Ag 0.0000000

Computation Completed

Properties will be evaluated at   0.000000,   0.000000,   0.000000 [a0]

Properties computed using the SCF density matrix

  Nuclear Dipole Moment: [e a0]
     X:     0.0000      Y:     0.0000      Z:     0.0000

  Electronic Dipole Moment: [e a0]
     X:     0.0000      Y:     0.0000      Z:     0.0000

  Dipole Moment: [e a0]
     X:     0.0000      Y:     0.0000      Z:     0.0000     Total:     0.0000

  Dipole Moment: [D]
     X:     0.0000      Y:     0.0000      Z:     0.0000     Total:     0.0000

*** tstop() called on n412-051.vsc4.prov at Wed Jan 20 23:58:10 2021
Module time:
	user time   =      17.74 seconds =       0.30 minutes
	system time =       0.60 seconds =       0.01 minutes
	total time  =         15 seconds =       0.25 minutes
Total time:
	user time   =      17.74 seconds =       0.30 minutes
	system time =       0.60 seconds =       0.01 minutes
	total time  =         15 seconds =       0.25 minutes

*** tstart() called on n412-051.vsc4.prov
*** at Wed Jan 20 23:58:10 2021

	Wfn Parameters:
	--------------------
	Wavefunction         = CCSD_T
	Number of irreps     = 8
	Number of MOs        = 127
	Number of active MOs = 127
	AO-Basis             = NONE
	Semicanonical        = false
	Reference            = UHF
	Print Level          = 1

	IRREP	# MOs	# FZDC	# DOCC	# SOCC	# VIRT	# FZVR
	-----	-----	------	------	------	------	------
	 Ag	   26	    0	    0	    1	    25	    0
	 B1g	   11	    0	    0	    0	    11	    0
	 B2g	   11	    0	    0	    0	    11	    0
	 B3g	   11	    0	    0	    0	    11	    0
	 Au	   8	    0	    0	    0	    8	    0
	 B1u	   20	    0	    0	    0	    20	    0
	 B2u	   20	    0	    0	    0	    20	    0
	 B3u	   20	    0	    0	    0	    20	    0
	Transforming integrals...
	IWL integrals will be deleted.
	(OO|OO)...
	Presorting SO-basis two-electron integrals.
	Sorting File: SO Ints (nn|nn) nbuckets = 1
	Constructing frozen core operators
	Starting AA/AB first half-transformation.
	Sorting AA/AB half-transformed integrals.
	Starting BB first half-transformation.
	Sorting BB half-transformed integrals.
	First half integral transformation complete.
	Starting AA second half-transformation.
	Starting AB second half-transformation.
	Starting BB second half-transformation.
	Two-electron integral transformation complete.
	(OO|OV)...
	Starting AA second half-transformation.
	Starting AB second half-transformation.
	Starting BB second half-transformation.
	Two-electron integral transformation complete.
	(OO|VV)...
	Starting AA second half-transformation.
	Starting AB second half-transformation.
	Starting BB second half-transformation.
	Two-electron integral transformation complete.
	(OV|OO)...
	Starting AA/AB first half-transformation.
	Sorting AA/AB half-transformed integrals.
	Starting BB first half-transformation.
	Sorting BB half-transformed integrals.
	First half integral transformation complete.
	Starting AA second half-transformation.
	Starting AB second half-transformation.
	Starting BB second half-transformation.
	Two-electron integral transformation complete.
	(OV|OV)...
	Starting AA second half-transformation.
	Starting AB second half-transformation.
	Starting BB second half-transformation.
	Two-electron integral transformation complete.
	(OV|VV)...
	Starting AA second half-transformation.
	Starting AB second half-transformation.
	Starting BB second half-transformation.
	Two-electron integral transformation complete.
	(VV|OO)...
	Starting AA/AB first half-transformation.
	Sorting AA/AB half-transformed integrals.
	Starting BB first half-transformation.
	Sorting BB half-transformed integrals.
	First half integral transformation complete.
	Starting AA second half-transformation.
	Starting AB second half-transformation.
	Starting BB second half-transformation.
	Two-electron integral transformation complete.
	(VV|OV)...
	Starting AA second half-transformation.
	Starting AB second half-transformation.
	Starting BB second half-transformation.
	Two-electron integral transformation complete.
	(VV|VV)...
	Starting AA second half-transformation.
	Starting AB second half-transformation.
	Starting BB second half-transformation.
	Two-electron integral transformation complete.
	Frozen core energy     =      0.00000000000000

	Size of irrep 0 of <AB|CD> integrals:      1.130 (MW) /      9.040 (MB)
	Size of irrep 1 of <AB|CD> integrals:      0.914 (MW) /      7.311 (MB)
	Size of irrep 2 of <AB|CD> integrals:      0.914 (MW) /      7.311 (MB)
	Size of irrep 3 of <AB|CD> integrals:      0.914 (MW) /      7.311 (MB)
	Size of irrep 4 of <AB|CD> integrals:      0.740 (MW) /      5.917 (MB)
	Size of irrep 5 of <AB|CD> integrals:      1.057 (MW) /      8.454 (MB)
	Size of irrep 6 of <AB|CD> integrals:      1.057 (MW) /      8.454 (MB)
	Size of irrep 7 of <AB|CD> integrals:      1.057 (MW) /      8.454 (MB)
	Total:                                     7.782 (MW) /     62.254 (MB)

	Size of irrep 0 of <ab|cd> integrals:      1.184 (MW) /      9.470 (MB)
	Size of irrep 1 of <ab|cd> integrals:      0.935 (MW) /      7.481 (MB)
	Size of irrep 2 of <ab|cd> integrals:      0.935 (MW) /      7.481 (MB)
	Size of irrep 3 of <ab|cd> integrals:      0.935 (MW) /      7.481 (MB)
	Size of irrep 4 of <ab|cd> integrals:      0.753 (MW) /      6.027 (MB)
	Size of irrep 5 of <ab|cd> integrals:      1.098 (MW) /      8.786 (MB)
	Size of irrep 6 of <ab|cd> integrals:      1.098 (MW) /      8.786 (MB)
	Size of irrep 7 of <ab|cd> integrals:      1.098 (MW) /      8.786 (MB)
	Total:                                     8.037 (MW) /     64.299 (MB)

	Size of irrep 0 of <Ab|Cd> integrals:      5.185 (MW) /     41.478 (MB)
	Size of irrep 1 of <Ab|Cd> integrals:      3.698 (MW) /     29.583 (MB)
	Size of irrep 2 of <Ab|Cd> integrals:      3.698 (MW) /     29.583 (MB)
	Size of irrep 3 of <Ab|Cd> integrals:      3.698 (MW) /     29.583 (MB)
	Size of irrep 4 of <Ab|Cd> integrals:      2.986 (MW) /     23.888 (MB)
	Size of irrep 5 of <Ab|Cd> integrals:      4.310 (MW) /     34.478 (MB)
	Size of irrep 6 of <Ab|Cd> integrals:      4.310 (MW) /     34.478 (MB)
	Size of irrep 7 of <Ab|Cd> integrals:      4.310 (MW) /     34.478 (MB)
	Total:                                    32.194 (MW) /    257.551 (MB)

	Size of irrep 0 of <IA|BC> integrals:      0.056 (MW) /      0.450 (MB)
	Size of irrep 1 of <IA|BC> integrals:      0.021 (MW) /      0.168 (MB)
	Size of irrep 2 of <IA|BC> integrals:      0.021 (MW) /      0.168 (MB)
	Size of irrep 3 of <IA|BC> integrals:      0.021 (MW) /      0.168 (MB)
	Size of irrep 4 of <IA|BC> integrals:      0.014 (MW) /      0.110 (MB)
	Size of irrep 5 of <IA|BC> integrals:      0.041 (MW) /      0.329 (MB)
	Size of irrep 6 of <IA|BC> integrals:      0.041 (MW) /      0.329 (MB)
	Size of irrep 7 of <IA|BC> integrals:      0.041 (MW) /      0.329 (MB)
	Total:                                     0.257 (MW) /      2.052 (MB)

	Size of irrep 0 of <ia|bc> integrals:      0.000 (MW) /      0.000 (MB)
	Size of irrep 1 of <ia|bc> integrals:      0.000 (MW) /      0.000 (MB)
	Size of irrep 2 of <ia|bc> integrals:      0.000 (MW) /      0.000 (MB)
	Size of irrep 3 of <ia|bc> integrals:      0.000 (MW) /      0.000 (MB)
	Size of irrep 4 of <ia|bc> integrals:      0.000 (MW) /      0.000 (MB)
	Size of irrep 5 of <ia|bc> integrals:      0.000 (MW) /      0.000 (MB)
	Size of irrep 6 of <ia|bc> integrals:      0.000 (MW) /      0.000 (MB)
	Size of irrep 7 of <ia|bc> integrals:      0.000 (MW) /      0.000 (MB)
	Total:                                     0.000 (MW) /      0.000 (MB)

	Size of irrep 0 of <Ia|Bc> integrals:      0.059 (MW) /      0.474 (MB)
	Size of irrep 1 of <Ia|Bc> integrals:      0.021 (MW) /      0.169 (MB)
	Size of irrep 2 of <Ia|Bc> integrals:      0.021 (MW) /      0.169 (MB)
	Size of irrep 3 of <Ia|Bc> integrals:      0.021 (MW) /      0.169 (MB)
	Size of irrep 4 of <Ia|Bc> integrals:      0.014 (MW) /      0.111 (MB)
	Size of irrep 5 of <Ia|Bc> integrals:      0.042 (MW) /      0.332 (MB)
	Size of irrep 6 of <Ia|Bc> integrals:      0.042 (MW) /      0.332 (MB)
	Size of irrep 7 of <Ia|Bc> integrals:      0.042 (MW) /      0.332 (MB)
	Total:                                     0.261 (MW) /      2.088 (MB)

	Size of irrep 0 of <iA|bC> integrals:      0.000 (MW) /      0.000 (MB)
	Size of irrep 1 of <iA|bC> integrals:      0.000 (MW) /      0.000 (MB)
	Size of irrep 2 of <iA|bC> integrals:      0.000 (MW) /      0.000 (MB)
	Size of irrep 3 of <iA|bC> integrals:      0.000 (MW) /      0.000 (MB)
	Size of irrep 4 of <iA|bC> integrals:      0.000 (MW) /      0.000 (MB)
	Size of irrep 5 of <iA|bC> integrals:      0.000 (MW) /      0.000 (MB)
	Size of irrep 6 of <iA|bC> integrals:      0.000 (MW) /      0.000 (MB)
	Size of irrep 7 of <iA|bC> integrals:      0.000 (MW) /      0.000 (MB)
	Total:                                     0.000 (MW) /      0.000 (MB)

	Size of irrep 0 of tIjAb amplitudes:       0.000 (MW) /      0.000 (MB)
	Size of irrep 1 of tIjAb amplitudes:       0.000 (MW) /      0.000 (MB)
	Size of irrep 2 of tIjAb amplitudes:       0.000 (MW) /      0.000 (MB)
	Size of irrep 3 of tIjAb amplitudes:       0.000 (MW) /      0.000 (MB)
	Size of irrep 4 of tIjAb amplitudes:       0.000 (MW) /      0.000 (MB)
	Size of irrep 5 of tIjAb amplitudes:       0.000 (MW) /      0.000 (MB)
	Size of irrep 6 of tIjAb amplitudes:       0.000 (MW) /      0.000 (MB)
	Size of irrep 7 of tIjAb amplitudes:       0.000 (MW) /      0.000 (MB)
	Total:                                     0.000 (MW) /      0.000 (MB)

	Nuclear Rep. energy          =      0.00000000000000
	SCF energy                   =     -0.49999927639681
	One-electron energy          =     -0.49999927639681
	Two-electron (AA) energy     =      0.00000000000000
	Two-electron (BB) energy     =      0.00000000000000
	Two-electron (AB) energy     =      0.00000000000000
	Two-electron energy          =      0.00000000000000
	Reference energy             =     -0.49999927639681

*** tstop() called on n412-051.vsc4.prov at Wed Jan 20 23:58:25 2021
Module time:
	user time   =       3.43 seconds =       0.06 minutes
	system time =       2.12 seconds =       0.04 minutes
	total time  =         15 seconds =       0.25 minutes
Total time:
	user time   =      21.17 seconds =       0.35 minutes
	system time =       2.72 seconds =       0.05 minutes
	total time  =         30 seconds =       0.50 minutes
            **************************
            *                        *
            *        CCENERGY        *
            *                        *
            **************************

    Nuclear Rep. energy (wfn)     =    0.000000000000000
    SCF energy          (wfn)     =   -0.499999276396808
    Reference energy    (file100) =   -0.499999276396809

    Input parameters:
    -----------------
    Wave function   =     CCSD_T
    Reference wfn   =     UHF
    Brueckner       =     No
    Memory (Mbytes) =     250000.0
    Maxiter         =     50
    R_Convergence   =     1.0e-07
    E_Convergence   =     1.0e-06
    Restart         =     Yes
    DIIS            =     Yes
    AO Basis        =     NONE
    ABCD            =     NEW
    Cache Level     =     2
    Cache Type      =     LRU
    Print Level     =     1
    Num. of threads =     48
    # Amps to Print =     10
    Print MP2 Amps? =     No
    Analyze T2 Amps =     No
    Print Pair Ener =     No
    Local CC        =     No
    SCS-MP2         =     False
    SCSN-MP2        =     False
    SCS-CCSD        =     False

MP2 correlation energy -0.0000000000000000
                Solving CC Amplitude Equations
                ------------------------------
  Iter             Energy              RMS        T1Diag      D1Diag    New D1Diag    D2Diag
  ----     ---------------------    ---------   ----------  ----------  ----------   --------
     0        -0.000000000000000    0.000e+00    0.000000    0.000000    0.000000    0.000000
     1        -0.000000000000000    5.923e-16    0.000000    0.000000    0.000000    0.000000

    Iterations converged.

    SCF energy       (wfn)                    =   -0.499999276396808
    Reference energy (file100)                =   -0.499999276396809

    Opposite-spin MP2 correlation energy      =    0.000000000000000
    Same-spin MP2 correlation energy          =    0.000000000000000
    Singles MP2 correlation energy            =   -0.000000000000000
    MP2 correlation energy                    =   -0.000000000000000
      * MP2 total energy                      =   -0.499999276396809

      * CCSD total energy                     =   -0.499999276396809
      * CCSD(T) total energy                     =   -0.499999276396809
*** Psi4 exiting successfully. Buy a developer a beer!
