                               Psi4 1.2a1.dev939

  ==> Input File <==

--------------------------------------------------------------------------
# Any line starting with the # character is a comment line

memory 32000 mb

molecule molecule {
0 1
C          0.0000000000        0.0000000000        0.5128013035
O          0.0000000000        0.0000000000        1.6988856423
Cl         1.4380172470        0.0000000000       -0.4631957958
Cl        -1.4380172470        0.0000000000       -0.4631957958
}

set {
  reference rhf
  basis aug-cc-pv(Q+d)z
  scf_type OUT_OF_CORE
  freeze_core true
}

energy('ccsd')
--------------------------------------------------------------------------

    Molecular point group: c2v

    Geometry (in Angstrom), charge = 0, multiplicity = 1:

       Center              X                  Y                   Z               Mass
    ------------   -----------------  -----------------  -----------------  -----------------
           C          0.000000000000     0.000000000000     0.503281540354    12.000000000000
           O          0.000000000000     0.000000000000     1.689365879154    15.994914619560
          CL          1.438017247000     0.000000000000    -0.472715558946    34.968852682000
          CL         -1.438017247000    -0.000000000000    -0.472715558946    34.968852682000

  Charge       = 0
  Multiplicity = 1
  Basis Set: AUG-CC-PV(Q+D)Z
    Blend: AUG-CC-PV(Q+D)Z

    Orbital Energies (a.u.)
    -----------------------

    Doubly Occupied:

       1B1  -104.888367     1A1  -104.888367     2A1   -20.619093
       3A1   -11.473940     2B1   -10.614024     4A1   -10.614009
       3B1    -8.081034     5A1    -8.081030     1A2    -8.079051
       1B2    -8.079049     4B1    -8.078926     6A1    -8.078925
       7A1    -1.477707     8A1    -1.204970     5B1    -1.140941
       9A1    -0.812229     6B1    -0.706241    10A1    -0.700204
       2B2    -0.646131    11A1    -0.532066     2A2    -0.501842
       3B2    -0.497907     7B1    -0.495522     8B1    -0.476588

  @RHF Final Energy: -1031.81825426915793

   => Energetics <=

    Nuclear Repulsion Energy =            192.1367366431426262
    One-Electron Energy =               -1806.3736530664180009
    Two-Electron Energy =                 582.4186621541176692
    Total Energy =                      -1031.8182542691579329
      * MP2 total energy                      = -1032.657462777184719
      * CCSD total energy                     = -1032.672631764336074
*** Psi4 exiting successfully. Buy a developer a beer!
