                               Psi4 1.2a1.dev939

  ==> Input File <==

--------------------------------------------------------------------------
# Any line starting with the # character is a comment line

memory 32000 mb

molecule molecule {
0 1
C          0.0000000000        0.0000000000        0.5128013035
O          0.0000000000        0.0000000000        1.6988856423
Cl         1.4380172470        0.0000000000       -0.4631957958
Cl        -1.4380172470        0.0000000000       -0.4631957958
}

set {
  reference rhf
  basis aug-cc-pv(T+d)z
  scf_type OUT_OF_CORE
  freeze_core true
}

energy('ccsd')
--------------------------------------------------------------------------

    Molecular point group: c2v

    Geometry (in Angstrom), charge = 0, multiplicity = 1:

       Center              X                  Y                   Z               Mass
    ------------   -----------------  -----------------  -----------------  -----------------
           C          0.000000000000     0.000000000000     0.503281540354    12.000000000000
           O          0.000000000000     0.000000000000     1.689365879154    15.994914619560
          CL          1.438017247000     0.000000000000    -0.472715558946    34.968852682000
          CL         -1.438017247000    -0.000000000000    -0.472715558946    34.968852682000

  Charge       = 0
  Multiplicity = 1
  Basis Set: AUG-CC-PV(T+D)Z
    Blend: AUG-CC-PV(T+D)Z

    Orbital Energies (a.u.)
    -----------------------

    Doubly Occupied:

       1B1  -104.890480     1A1  -104.890480     2A1   -20.622116
       3A1   -11.475878     2B1   -10.614927     4A1   -10.614912
       3B1    -8.081773     5A1    -8.081770     1A2    -8.079596
       1B2    -8.079592     4B1    -8.079413     6A1    -8.079411
       7A1    -1.478938     8A1    -1.205511     5B1    -1.141343
       9A1    -0.812689     6B1    -0.706419    10A1    -0.700419
       2B2    -0.646349    11A1    -0.532178     2A2    -0.501977
       3B2    -0.498049     7B1    -0.495712     8B1    -0.476691

  @RHF Final Energy: -1031.80416870344675

   => Energetics <=

    Nuclear Repulsion Energy =            192.1367366431426262
    One-Electron Energy =               -1806.3085653412322245
    Two-Electron Energy =                 582.3676599946427359
    Total Energy =                      -1031.8041687034467486
      * MP2 total energy                      = -1032.585457878233910
      * CCSD total energy                     = -1032.607358952168852
*** Psi4 exiting successfully. Buy a developer a beer!
