                               Psi4 1.2a1.dev939

  ==> Input File <==

--------------------------------------------------------------------------
# Any line starting with the # character is a comment line

memory 250000 mb

molecule molecule {
0 1
C          0.0000000000        0.0000000000        0.5128013035
O          0.0000000000        0.0000000000        1.6988856423
Cl         1.4380172470        0.0000000000       -0.4631957958
Cl        -1.4380172470        0.0000000000       -0.4631957958
}

set {
  reference rhf

  basis aug-cc-pv(6+d)z
  scf_type OUT_OF_CORE
  freeze_core true
}

energy('ccsd')
--------------------------------------------------------------------------

    Molecular point group: c2v

    Geometry (in Angstrom), charge = 0, multiplicity = 1:

       Center              X                  Y                   Z               Mass
    ------------   -----------------  -----------------  -----------------  -----------------
           C          0.000000000000     0.000000000000     0.503281540354    12.000000000000
           O          0.000000000000     0.000000000000     1.689365879154    15.994914619560
          CL          1.438017247000     0.000000000000    -0.472715558946    34.968852682000
          CL         -1.438017247000    -0.000000000000    -0.472715558946    34.968852682000

  Charge       = 0
  Multiplicity = 1
  Basis Set: AUG-CC-PV(6+D)Z
    Blend: AUG-CC-PV(6+D)Z

    Orbital Energies (a.u.)
    -----------------------

    Doubly Occupied:

       1B1  -104.888617     1A1  -104.888616     2A1   -20.618235
       3A1   -11.473468     2B1   -10.613968     4A1   -10.613954
       3B1    -8.080756     5A1    -8.080752     1A2    -8.079123
       1B2    -8.079120     4B1    -8.079048     6A1    -8.079046
       7A1    -1.477365     8A1    -1.204812     5B1    -1.140831
       9A1    -0.812138     6B1    -0.706193    10A1    -0.700142
       2B2    -0.646071    11A1    -0.532047     2A2    -0.501830
       3B2    -0.497882     7B1    -0.495474     8B1    -0.476586

  @RHF Final Energy: -1031.82146246685284

   => Energetics <=

    Nuclear Repulsion Energy =            192.1367366431426547
    One-Electron Energy =               -1806.3842466907815378
    Two-Electron Energy =                 582.4260475807859621
    Total Energy =                      -1031.8214624668528359
      * MP2 total energy                      = -1032.697215618524979
      * CCSD total energy                     = -1032.700771064456831
*** Psi4 exiting successfully. Buy a developer a beer!
