                               Psi4 1.2a1.dev939

  ==> Input File <==

--------------------------------------------------------------------------
# Any line starting with the # character is a comment line
memory 250000 mb
molecule molecule{
1 2
Si        -0.0508955879       -0.0000005355       -0.1035323228
H         -0.3300191419        0.0000192733        1.7157081775
H          0.4511927297        0.0000054985        1.7171216732
H          0.6485008222        1.2762022169       -0.2740075764
H          0.6484933725       -1.2762120661       -0.2739709426
}

set {
  reference uhf
  basis aug-cc-pv(5+d)z
  scf_type OUT_OF_CORE
  freeze_core true
}

energy('ccsd')
--------------------------------------------------------------------------

    Molecular point group: c1

    Geometry (in Angstrom), charge = 1, multiplicity = 2:

       Center              X                  Y                   Z               Mass
    ------------   -----------------  -----------------  -----------------  -----------------
          SI         -0.051063134432    -0.000000537303    -0.103873147591    27.976926532460
           H         -0.330186688432     0.000019271497     1.715367352709     1.007825032070
           H          0.451025183168     0.000005496697     1.716780848409     1.007825032070
           H          0.648333275668     1.276202215097    -0.274348401191     1.007825032070
           H          0.648325825968    -1.276212067903    -0.274311767391     1.007825032070

  Charge       = 1
  Multiplicity = 2
  Basis Set: AUG-CC-PV(5+D)Z
    Blend: AUG-CC-PV(5+D)Z

    Orbital Energies (a.u.)
    -----------------------

    Alpha Occupied:

       1A    -69.102143     2A     -6.447313     3A     -4.558015
       4A     -4.549715     5A     -4.546796     6A     -1.049827
       7A     -0.873267     8A     -0.769771     9A     -0.637052

    Alpha Virtual:

      10A     -0.172819    11A     -0.117147    12A     -0.101446
      13A     -0.094545    14A     -0.076890    15A     -0.070859
      16A     -0.069390    17A     -0.063202    18A     -0.057330
      19A     -0.043142    20A     -0.031525    21A     -0.027970
      22A     -0.025779    23A      0.006598    24A      0.019215
      25A      0.021662    26A      0.022769    27A      0.030514
      28A      0.034820    29A      0.036471    30A      0.051334
      31A      0.064960    32A      0.067800    33A      0.076437
      34A      0.080635    35A      0.087523    36A      0.094370
      37A      0.100932    38A      0.122001    39A      0.144338
      40A      0.157938    41A      0.162007    42A      0.166455
      43A      0.167740    44A      0.176152    45A      0.180946
      46A      0.190514    47A      0.192099    48A      0.206512
      49A      0.223571    50A      0.224416    51A      0.239950
      52A      0.242684    53A      0.250698    54A      0.255404
      55A      0.288485    56A      0.311835    57A      0.315631
      58A      0.331261    59A      0.353968    60A      0.368885
      61A      0.372457    62A      0.378693    63A      0.404646
      64A      0.435790    65A      0.450163    66A      0.462672
      67A      0.464553    68A      0.478767    69A      0.487630
      70A      0.490337    71A      0.507293    72A      0.507945
      73A      0.514877    74A      0.521765    75A      0.523143
      76A      0.546492    77A      0.556037    78A      0.572667
      79A      0.579265    80A      0.581967    81A      0.596084
      82A      0.596210    83A      0.599767    84A      0.615999
      85A      0.627168    86A      0.641536    87A      0.641870
      88A      0.651665    89A      0.670730    90A      0.673482
      91A      0.692994    92A      0.714218    93A      0.735282
      94A      0.737282    95A      0.750765    96A      0.758413
      97A      0.774783    98A      0.785561    99A      0.786905
     100A      0.829656   101A      0.903220   102A      0.921860
     103A      0.936182   104A      0.940223   105A      0.981771
     106A      1.003845   107A      1.010987   108A      1.012043
     109A      1.025936   110A      1.042029   111A      1.069965
     112A      1.077314   113A      1.102392   114A      1.131595
     115A      1.137529   116A      1.152591   117A      1.161534
     118A      1.177741   119A      1.182424   120A      1.205292
     121A      1.207796   122A      1.241051   123A      1.244118
     124A      1.252979   125A      1.256911   126A      1.280205
     127A      1.294009   128A      1.301454   129A      1.317922
     130A      1.331314   131A      1.337665   132A      1.351418
     133A      1.363873   134A      1.373403   135A      1.404246
     136A      1.407957   137A      1.443608   138A      1.451318
     139A      1.463962   140A      1.471277   141A      1.474028
     142A      1.494764   143A      1.512381   144A      1.519277
     145A      1.539999   146A      1.561279   147A      1.574690
     148A      1.595856   149A      1.601526   150A      1.625213
     151A      1.628343   152A      1.638382   153A      1.700255
     154A      1.705728   155A      1.707558   156A      1.744653
     157A      1.750542   158A      1.770778   159A      1.799657
     160A      1.818144   161A      1.867148   162A      1.887291
     163A      1.905939   164A      1.912593   165A      1.938244
     166A      1.968863   167A      1.984528   168A      1.993439
     169A      2.007929   170A      2.016898   171A      2.035127
     172A      2.037015   173A      2.062678   174A      2.062763
     175A      2.104043   176A      2.107032   177A      2.136903
     178A      2.142836   179A      2.163269   180A      2.207618
     181A      2.211806   182A      2.230856   183A      2.292165
     184A      2.319880   185A      2.422445   186A      2.440640
     187A      2.483839   188A      2.484611   189A      2.499839
     190A      2.532140   191A      2.544754   192A      2.581727
     193A      2.613725   194A      2.644299   195A      2.660333
     196A      2.671957   197A      2.712472   198A      2.721275
     199A      2.734050   200A      2.750226   201A      2.805021
     202A      2.814418   203A      2.844635   204A      2.874776
     205A      2.899427   206A      2.900195   207A      2.926823
     208A      2.990469   209A      3.036905   210A      3.051236
     211A      3.053229   212A      3.125649   213A      3.136787
     214A      3.160268   215A      3.180457   216A      3.185272
     217A      3.191219   218A      3.194868   219A      3.250009
     220A      3.263254   221A      3.267605   222A      3.293989
     223A      3.301130   224A      3.336184   225A      3.341362
     226A      3.369475   227A      3.381274   228A      3.408714
     229A      3.417360   230A      3.427710   231A      3.429779
     232A      3.473850   233A      3.486705   234A      3.487113
     235A      3.546753   236A      3.569195   237A      3.576388
     238A      3.600240   239A      3.603913   240A      3.639023
     241A      3.649367   242A      3.684953   243A      3.690222
     244A      3.715462   245A      3.736777   246A      3.748429
     247A      3.790757   248A      3.823208   249A      3.829727
     250A      3.858017   251A      3.889412   252A      3.890512
     253A      3.918092   254A      3.952663   255A      3.955900
     256A      3.988511   257A      4.021681   258A      4.032052
     259A      4.032997   260A      4.052250   261A      4.054451
     262A      4.091353   263A      4.117271   264A      4.148754
     265A      4.174477   266A      4.181806   267A      4.183541
     268A      4.236343   269A      4.266015   270A      4.272885
     271A      4.276088   272A      4.344734   273A      4.352096
     274A      4.373016   275A      4.400271   276A      4.449979
     277A      4.466846   278A      4.519082   279A      4.536106
     280A      4.547062   281A      4.556065   282A      4.600962
     283A      4.644889   284A      4.646158   285A      4.692283
     286A      4.699786   287A      4.785190   288A      4.790252
     289A      4.850945   290A      4.878898   291A      4.989822
     292A      5.018681   293A      5.043434   294A      5.086082
     295A      5.222019   296A      5.256229   297A      5.263205
     298A      5.297602   299A      5.357703   300A      5.397778
     301A      5.498806   302A      5.511126   303A      5.513173
     304A      5.609034   305A      5.623148   306A      5.689364
     307A      5.725823   308A      5.767107   309A      5.793225
     310A      5.809371   311A      5.848961   312A      5.869169
     313A      5.933339   314A      5.943058   315A      5.983327
     316A      6.005366   317A      6.046771   318A      6.094780
     319A      6.113066   320A      6.154595   321A      6.206396
     322A      6.224732   323A      6.286664   324A      6.466708
     325A      6.478985   326A      6.481162   327A      6.575487
     328A      6.702713   329A      6.750009   330A      6.765735
     331A      6.888358   332A      6.951046   333A      6.988259
     334A      7.031032   335A      7.058628   336A      7.201009
     337A      7.341008   338A      7.469947   339A      7.476245
     340A      7.584390   341A      7.624388   342A      8.241015
     343A      8.312567   344A      8.513694   345A      8.576596
     346A      8.609322   347A      8.737178   348A      9.976872
     349A     10.048771   350A     10.094045   351A     10.205913
     352A     10.353027   353A     11.961577   354A     12.053990
     355A     12.094244   356A     12.155149   357A     12.463443
     358A     12.670895   359A     12.721540   360A     12.744605
     361A     12.833631   362A     12.844300   363A     12.861265
     364A     12.864942   365A     12.958687   366A     12.975070
     367A     12.984995   368A     12.991152   369A     12.991313
     370A     13.013701   371A     13.029384   372A     13.044158
     373A     13.055260   374A     13.058794   375A     13.078324
     376A     13.092926   377A     13.107177   378A     13.118825
     379A     13.152816   380A     13.165580   381A     13.208172
     382A     13.223759   383A     13.236286   384A     13.251247
     385A     13.285079   386A     13.352892   387A     13.379256
     388A     13.404048   389A     13.432476   390A     13.438240
     391A     13.471600   392A     13.486092   393A     13.544491
     394A     13.634250   395A     13.673958   396A     13.747510
     397A     13.807915   398A     13.888787   399A     13.907639
     400A     13.953717   401A     13.959210   402A     14.063131
     403A     14.064960   404A     14.096708   405A     14.123504
     406A     14.155297   407A     14.179974   408A     14.180642
     409A     14.224033   410A     14.228512   411A     14.328343
     412A     14.398534   413A     14.417724   414A     14.423762
     415A     14.473039   416A     14.498098   417A     14.528938
     418A     14.645584   419A     14.651807   420A     14.727531
     421A     14.755396   422A     14.789057   423A     14.835612
     424A     14.856302   425A     14.946810   426A     15.006698
     427A     15.215682   428A     15.296459   429A     15.429489
     430A     15.520267   431A     15.569458   432A     15.754318
     433A     15.913747   434A     16.531401   435A     17.074942
     436A     17.083172   437A     17.232583   438A     17.513759
     439A     17.681845   440A     17.759729   441A     17.832579
     442A     17.888964   443A     17.932303   444A     17.973132
     445A     18.074584   446A     18.083206   447A     18.117721
     448A     18.274761   449A     18.626478   450A     18.716276
     451A     18.870492   452A     22.477598   453A     23.131675
     454A     23.185202   455A     27.508508   456A     49.240315

    Beta Occupied:

       1A    -69.094715     2A     -6.436404     3A     -4.545087
       4A     -4.542392     5A     -4.532850     6A     -1.015325
       7A     -0.850482     8A     -0.752848

    Beta Virtual:

       9A     -0.229212    10A     -0.146198    11A     -0.108872
      12A     -0.084635    13A     -0.083736    14A     -0.074589
      15A     -0.063683    16A     -0.060881    17A     -0.056674
      18A     -0.052747    19A     -0.040818    20A     -0.027073
      21A     -0.020530    22A     -0.015950    23A      0.009849
      24A      0.021627    25A      0.024387    26A      0.025420
      27A      0.036232    28A      0.038059    29A      0.046338
      30A      0.058346    31A      0.070617    32A      0.073084
      33A      0.079847    34A      0.082475    35A      0.095006
      36A      0.104291    37A      0.107963    38A      0.126872
      39A      0.149835    40A      0.159606    41A      0.166098
      42A      0.168803    43A      0.169923    44A      0.177655
      45A      0.183402    46A      0.193517    47A      0.193544
      48A      0.213625    49A      0.225398    50A      0.235321
      51A      0.242900    52A      0.247625    53A      0.254666
      54A      0.280191    55A      0.304222    56A      0.316815
      57A      0.321770    58A      0.336772    59A      0.357379
      60A      0.378121    61A      0.380777    62A      0.381578
      63A      0.408630    64A      0.438546    65A      0.452051
      66A      0.466175    67A      0.472190    68A      0.483387
      69A      0.493375    70A      0.494091    71A      0.508421
      72A      0.516605    73A      0.519111    74A      0.525339
      75A      0.525483    76A      0.550566    77A      0.563961
      78A      0.574670    79A      0.581475    80A      0.591225
      81A      0.602141    82A      0.604116    83A      0.604579
      84A      0.622160    85A      0.632492    86A      0.644035
      87A      0.656669    88A      0.657484    89A      0.674156
      90A      0.681110    91A      0.696150    92A      0.720174
      93A      0.739298    94A      0.741729    95A      0.757533
      96A      0.770647    97A      0.780635    98A      0.792841
      99A      0.798751   100A      0.833358   101A      0.907211
     102A      0.926354   103A      0.938144   104A      0.949125
     105A      0.990795   106A      1.008033   107A      1.014959
     108A      1.017531   109A      1.031224   110A      1.049333
     111A      1.078082   112A      1.084203   113A      1.104580
     114A      1.137625   115A      1.138513   116A      1.155059
     117A      1.166307   118A      1.179474   119A      1.186027
     120A      1.209290   121A      1.209652   122A      1.243942
     123A      1.247500   124A      1.257565   125A      1.260116
     126A      1.285077   127A      1.294869   128A      1.305792
     129A      1.319879   130A      1.336366   131A      1.339792
     132A      1.354638   133A      1.367008   134A      1.375842
     135A      1.405366   136A      1.412144   137A      1.445867
     138A      1.453677   139A      1.467411   140A      1.478533
     141A      1.483450   142A      1.502866   143A      1.517239
     144A      1.529623   145A      1.546694   146A      1.564087
     147A      1.585081   148A      1.604349   149A      1.611409
     150A      1.630124   151A      1.640012   152A      1.648491
     153A      1.709148   154A      1.714143   155A      1.714705
     156A      1.753976   157A      1.754660   158A      1.778467
     159A      1.808400   160A      1.823663   161A      1.874290
     162A      1.894050   163A      1.910050   164A      1.918420
     165A      1.944262   166A      1.974792   167A      1.990482
     168A      2.002003   169A      2.015570   170A      2.024182
     171A      2.041277   172A      2.042834   173A      2.066225
     174A      2.068023   175A      2.109462   176A      2.110640
     177A      2.143009   178A      2.147485   179A      2.169826
     180A      2.210186   181A      2.218809   182A      2.234304
     183A      2.297143   184A      2.323178   185A      2.424471
     186A      2.447705   187A      2.487402   188A      2.488300
     189A      2.503212   190A      2.536737   191A      2.548697
     192A      2.588120   193A      2.618364   194A      2.646573
     195A      2.663454   196A      2.674838   197A      2.717585
     198A      2.723228   199A      2.737043   200A      2.752723
     201A      2.807914   202A      2.816418   203A      2.846577
     204A      2.877506   205A      2.902062   206A      2.902682
     207A      2.929337   208A      2.991850   209A      3.040559
     210A      3.053406   211A      3.055616   212A      3.129218
     213A      3.145113   214A      3.165972   215A      3.182219
     216A      3.190497   217A      3.195731   218A      3.198175
     219A      3.253639   220A      3.270982   221A      3.273090
     222A      3.297884   223A      3.304647   224A      3.338817
     225A      3.344545   226A      3.372930   227A      3.384822
     228A      3.414022   229A      3.422131   230A      3.432475
     231A      3.432795   232A      3.476630   233A      3.489465
     234A      3.491659   235A      3.550612   236A      3.573328
     237A      3.578950   238A      3.604901   239A      3.608016
     240A      3.640773   241A      3.653183   242A      3.688335
     243A      3.695539   244A      3.718007   245A      3.739788
     246A      3.750160   247A      3.797791   248A      3.827171
     249A      3.832268   250A      3.864229   251A      3.893550
     252A      3.894071   253A      3.920647   254A      3.959674
     255A      3.961488   256A      3.997036   257A      4.029275
     258A      4.037499   259A      4.042747   260A      4.057472
     261A      4.063499   262A      4.100624   263A      4.123368
     264A      4.155513   265A      4.180401   266A      4.186706
     267A      4.186789   268A      4.239994   269A      4.271671
     270A      4.277465   271A      4.281393   272A      4.352225
     273A      4.359763   274A      4.379524   275A      4.406597
     276A      4.455334   277A      4.472138   278A      4.526916
     279A      4.541141   280A      4.555375   281A      4.559297
     282A      4.604738   283A      4.649846   284A      4.651039
     285A      4.695777   286A      4.702802   287A      4.791088
     288A      4.795390   289A      4.852866   290A      4.882665
     291A      4.992166   292A      5.020911   293A      5.046248
     294A      5.088298   295A      5.225996   296A      5.257938
     297A      5.267281   298A      5.299594   299A      5.360176
     300A      5.400104   301A      5.501532   302A      5.513601
     303A      5.516422   304A      5.613986   305A      5.625401
     306A      5.691139   307A      5.729395   308A      5.770037
     309A      5.794981   310A      5.811905   311A      5.851192
     312A      5.871173   313A      5.935723   314A      5.944734
     315A      5.986062   316A      6.007671   317A      6.049550
     318A      6.096003   319A      6.115264   320A      6.157556
     321A      6.208264   322A      6.226683   323A      6.288876
     324A      6.468158   325A      6.480351   326A      6.482514
     327A      6.577445   328A      6.705072   329A      6.753405
     330A      6.767132   331A      6.889608   332A      6.951801
     333A      6.991162   334A      7.031939   335A      7.060132
     336A      7.204429   337A      7.342830   338A      7.473182
     339A      7.478435   340A      7.585561   341A      7.626782
     342A      8.242519   343A      8.316302   344A      8.516356
     345A      8.577247   346A      8.609823   347A      8.737951
     348A      9.986408   349A     10.051987   350A     10.101809
     351A     10.213762   352A     10.355953   353A     11.961751
     354A     12.054197   355A     12.094637   356A     12.155632
     357A     12.463903   358A     12.671424   359A     12.722266
     360A     12.745200   361A     12.835347   362A     12.846041
     363A     12.863059   364A     12.866756   365A     12.960104
     366A     12.975915   367A     12.986127   368A     12.992400
     369A     12.992402   370A     13.015069   371A     13.030804
     372A     13.045308   373A     13.056178   374A     13.060257
     375A     13.079317   376A     13.094083   377A     13.108664
     378A     13.119973   379A     13.154372   380A     13.166954
     381A     13.209833   382A     13.225216   383A     13.237395
     384A     13.252612   385A     13.286334   386A     13.354003
     387A     13.380821   388A     13.405591   389A     13.433861
     390A     13.440136   391A     13.472198   392A     13.487407
     393A     13.545335   394A     13.635880   395A     13.675124
     396A     13.748162   397A     13.809020   398A     13.890347
     399A     13.908227   400A     13.955178   401A     13.960680
     402A     14.063851   403A     14.065671   404A     14.099256
     405A     14.126125   406A     14.156696   407A     14.180183
     408A     14.181272   409A     14.224948   410A     14.231290
     411A     14.330269   412A     14.399611   413A     14.419599
     414A     14.425717   415A     14.474365   416A     14.499979
     417A     14.530907   418A     14.647502   419A     14.652626
     420A     14.728072   421A     14.756761   422A     14.790912
     423A     14.836109   424A     14.858629   425A     14.947439
     426A     15.007160   427A     15.221475   428A     15.297502
     429A     15.431547   430A     15.522271   431A     15.569943
     432A     15.758424   433A     15.914922   434A     16.533488
     435A     17.075217   436A     17.083682   437A     17.233268
     438A     17.514567   439A     17.684404   440A     17.760930
     441A     17.833182   442A     17.890809   443A     17.934031
     444A     17.974979   445A     18.075308   446A     18.083495
     447A     18.118055   448A     18.275393   449A     18.626862
     450A     18.718527   451A     18.872739   452A     22.477911
     453A     23.131914   454A     23.185499   455A     27.508838
     456A     49.244733

    Final Occupation by Irrep:
              A
    DOCC [     8 ]
    SOCC [     1 ]

  Energy converged.

  @UHF Final Energy:  -290.89527742958285

   => Energetics <=

    Nuclear Repulsion Energy =             19.8045952275463328
    One-Electron Energy =                -437.0957445256046867
    Two-Electron Energy =                 126.3958718684754956
    Total Energy =                       -290.8952774295828476

  UHF NO Occupations:
  HONO-2 :    7  A 1.9997409
  HONO-1 :    8  A 1.9982890
  HONO-0 :    9  A 1.0000000
  LUNO+0 :   10  A 0.0017110
  LUNO+1 :   11  A 0.0002591
  LUNO+2 :   12  A 0.0002409
  LUNO+3 :   13  A 0.0000067

Properties will be evaluated at   0.000000,   0.000000,   0.000000 Bohr

Properties computed using the SCF density matrix

  Nuclear Dipole Moment: (a.u.)
     X:     1.3277      Y:     0.0000      Z:     2.7009

  Electronic Dipole Moment: (a.u.)
     X:    -1.2753      Y:    -0.0000      Z:    -2.0420

  Dipole Moment: (a.u.)
     X:     0.0525      Y:     0.0000      Z:     0.6589     Total:     0.6610

  Dipole Moment: (Debye)
     X:     0.1334      Y:     0.0000      Z:     1.6748     Total:     1.6801

*** tstop() called on n412-036.vsc4.prov at Fri Oct 30 20:04:29 2020
Module time:
	user time   =    9288.83 seconds =     154.81 minutes
	system time =    1756.79 seconds =      29.28 minutes
	total time  =      13408 seconds =     223.47 minutes
Total time:
	user time   =    9288.83 seconds =     154.81 minutes
	system time =    1756.79 seconds =      29.28 minutes
	total time  =      13408 seconds =     223.47 minutes

*** tstart() called on n412-036.vsc4.prov
*** at Fri Oct 30 20:04:29 2020

	Wfn Parameters:
	--------------------
	Wavefunction         = CCSD
	Number of irreps     = 1
	Number of MOs        = 456
	Number of active MOs = 451
	AO-Basis             = NONE
	Semicanonical        = false
	Reference            = UHF
	Print Level          = 1

	IRREP	# MOs	# FZDC	# DOCC	# SOCC	# VIRT	# FZVR
	-----	-----	------	------	------	------	------
	 A	   456	    5	    3	    1	    447	    0
	Transforming integrals...
	IWL integrals will be deleted.
	(OO|OO)...
	Presorting SO-basis two-electron integrals.
	Sorting File: SO Ints (nn|nn) nbuckets = 1
	Transforming the one-electron integrals and constructing Fock matrices
	Starting AA/AB first half-transformation.

      * MP2 total energy                      = -291.021702785481182
      * CCSD total energy                     = -291.045746565665468
*** Psi4 exiting successfully. Buy a developer a beer!
