                               Psi4 1.2a1.dev938

  ==> Input File <==

--------------------------------------------------------------------------
# Any line starting with the # character is a comment line
memory 250000 mb
molecule molecule{
1 2
Si        -0.0508955879       -0.0000005355       -0.1035323228
H         -0.3300191419        0.0000192733        1.7157081775
H          0.4511927297        0.0000054985        1.7171216732
H          0.6485008222        1.2762022169       -0.2740075764
H          0.6484933725       -1.2762120661       -0.2739709426
}

set {
  reference uhf
  basis aug-cc-pv(d+d)z
  scf_type OUT_OF_CORE
  freeze_core true
}

energy('ccsd')
--------------------------------------------------------------------------

    Molecular point group: c1

    Geometry (in Angstrom), charge = 1, multiplicity = 2:

       Center              X                  Y                   Z               Mass
    ------------   -----------------  -----------------  -----------------  -----------------
          SI         -0.051063134432    -0.000000537303    -0.103873147591    27.976926532460
           H         -0.330186688432     0.000019271497     1.715367352709     1.007825032070
           H          0.451025183168     0.000005496697     1.716780848409     1.007825032070
           H          0.648333275668     1.276202215097    -0.274348401191     1.007825032070
           H          0.648325825968    -1.276212067903    -0.274311767391     1.007825032070

  Charge       = 1
  Multiplicity = 2
  Basis Set: AUG-CC-PV(D+D)Z
    Blend: AUG-CC-PV(D+D)Z

    Orbital Energies (a.u.)
    -----------------------

    Alpha Occupied:

       1A    -69.109154     2A     -6.452900     3A     -4.562679
       4A     -4.555895     5A     -4.552140     6A     -1.050327
       7A     -0.872580     8A     -0.769344     9A     -0.635957

    Alpha Virtual:

      10A     -0.173318    11A     -0.116336    12A     -0.098693
      13A     -0.092624    14A     -0.070138    15A     -0.064948
      16A     -0.060156    17A     -0.045292    18A     -0.024677
      19A     -0.021560    20A     -0.002200    21A      0.001305
      22A      0.009577    23A      0.073879    24A      0.109824
      25A      0.151557    26A      0.159624    27A      0.168492
      28A      0.175826    29A      0.186070    30A      0.218622
      31A      0.240697    32A      0.269559    33A      0.282690
      34A      0.288747    35A      0.310023    36A      0.336349
      37A      0.338931    38A      0.390619    39A      0.413010
      40A      0.450992    41A      0.471709    42A      0.479635
      43A      0.495825    44A      0.561690    45A      0.603588
      46A      0.684194    47A      0.724470    48A      0.810908
      49A      0.940610    50A      1.038273    51A      1.060905
      52A      1.362126    53A      1.468719    54A      1.614491
      55A      1.693754    56A      1.748402    57A      1.766075
      58A      1.844408    59A      1.896506    60A      1.916835
      61A      2.031238    62A      2.109374    63A      3.078150
      64A      3.100817    65A      3.104207    66A      3.149464
      67A      3.187337    68A      3.211704

    Beta Occupied:

       1A    -69.102622     2A     -6.442478     3A     -4.551633
       4A     -4.548061     5A     -4.539446     6A     -1.015106
       7A     -0.849839     8A     -0.751756

    Beta Virtual:

       9A     -0.230305    10A     -0.146795    11A     -0.107700
      12A     -0.080531    13A     -0.080377    14A     -0.067690
      15A     -0.054285    16A     -0.049283    17A     -0.035399
      18A     -0.018483    19A     -0.016830    20A      0.006486
      21A      0.018949    22A      0.027055    23A      0.093244
      24A      0.122647    25A      0.153809    26A      0.167067
      27A      0.174252    28A      0.180109    29A      0.211357
      30A      0.222295    31A      0.247735    32A      0.277914
      33A      0.299202    34A      0.301418    35A      0.322890
      36A      0.342990    37A      0.345696    38A      0.397258
      39A      0.425586    40A      0.472946    41A      0.492152
      42A      0.494544    43A      0.518782    44A      0.579854
      45A      0.623301    46A      0.709694    47A      0.729015
      48A      0.816436    49A      0.947492    50A      1.046831
      51A      1.071145    52A      1.363519    53A      1.473662
      54A      1.623980    55A      1.699259    56A      1.755670
      57A      1.772759    58A      1.847920    59A      1.905784
      60A      1.919273    61A      2.037578    62A      2.117083
      63A      3.080961    64A      3.108527    65A      3.112575
      66A      3.156756    67A      3.189472    68A      3.214682

    Final Occupation by Irrep:
              A
    DOCC [     8 ]
    SOCC [     1 ]

  Energy converged.

  @UHF Final Energy:  -290.87759812410690

   => Energetics <=

    Nuclear Repulsion Energy =             19.8045952275463328
    One-Electron Energy =                -437.0024700255056018
    Two-Electron Energy =                 126.3202766738523763
    Total Energy =                       -290.8775981241068962

  UHF NO Occupations:
  HONO-2 :    7  A 1.9997709
  HONO-1 :    8  A 1.9984167
  HONO-0 :    9  A 1.0000000
  LUNO+0 :   10  A 0.0015833
  LUNO+1 :   11  A 0.0002291
  LUNO+2 :   12  A 0.0001792
  LUNO+3 :   13  A 0.0000014

Properties will be evaluated at   0.000000,   0.000000,   0.000000 Bohr

Properties computed using the SCF density matrix

  Nuclear Dipole Moment: (a.u.)
     X:     1.3277      Y:     0.0000      Z:     2.7009

  Electronic Dipole Moment: (a.u.)
     X:    -1.2757      Y:    -0.0000      Z:    -2.0496

  Dipole Moment: (a.u.)
     X:     0.0521      Y:     0.0000      Z:     0.6514     Total:     0.6534

  Dipole Moment: (Debye)
     X:     0.1323      Y:     0.0000      Z:     1.6556     Total:     1.6608

*** tstop() called on cqc05 at Thu Aug 20 19:55:57 2020
Module time:
	user time   =       3.26 seconds =       0.05 minutes
	system time =       0.14 seconds =       0.00 minutes
	total time  =          3 seconds =       0.05 minutes
Total time:
	user time   =       3.26 seconds =       0.05 minutes
	system time =       0.14 seconds =       0.00 minutes
	total time  =          3 seconds =       0.05 minutes

*** tstart() called on cqc05
*** at Thu Aug 20 19:55:57 2020

	Wfn Parameters:
	--------------------
	Wavefunction         = CCSD
	Number of irreps     = 1
	Number of MOs        = 68
	Number of active MOs = 63
	AO-Basis             = NONE
	Semicanonical        = false
	Reference            = UHF
	Print Level          = 1

	IRREP	# MOs	# FZDC	# DOCC	# SOCC	# VIRT	# FZVR
	-----	-----	------	------	------	------	------
	 A	   68	    5	    3	    1	    59	    0
	Transforming integrals...
	IWL integrals will be deleted.
	(OO|OO)...
	Presorting SO-basis two-electron integrals.
	Sorting File: SO Ints (nn|nn) nbuckets = 1
	Transforming the one-electron integrals and constructing Fock matrices
	Starting AA/AB first half-transformation.
	Sorting AA/AB half-transformed integrals.
	Starting BB first half-transformation.
	Sorting BB half-transformed integrals.
	First half integral transformation complete.
	Starting AA second half-transformation.
	Starting AB second half-transformation.
	Starting BB second half-transformation.
	Two-electron integral transformation complete.
	(OO|OV)...
	Starting AA second half-transformation.
	Starting AB second half-transformation.
	Starting BB second half-transformation.
	Two-electron integral transformation complete.
	(OO|VV)...
	Starting AA second half-transformation.
	Starting AB second half-transformation.
	Starting BB second half-transformation.
	Two-electron integral transformation complete.
	(OV|OO)...
	Starting AA/AB first half-transformation.
	Sorting AA/AB half-transformed integrals.
	Starting BB first half-transformation.
	Sorting BB half-transformed integrals.
	First half integral transformation complete.
	Starting AA second half-transformation.
	Starting AB second half-transformation.
	Starting BB second half-transformation.
	Two-electron integral transformation complete.
	(OV|OV)...
	Starting AA second half-transformation.
	Starting AB second half-transformation.
	Starting BB second half-transformation.
	Two-electron integral transformation complete.
	(OV|VV)...
	Starting AA second half-transformation.
	Starting AB second half-transformation.
	Starting BB second half-transformation.
	Two-electron integral transformation complete.
	(VV|OO)...
	Starting AA/AB first half-transformation.
	Sorting AA/AB half-transformed integrals.
	Starting BB first half-transformation.
	Sorting BB half-transformed integrals.
	First half integral transformation complete.
	Starting AA second half-transformation.
	Starting AB second half-transformation.
	Starting BB second half-transformation.
	Two-electron integral transformation complete.
	(VV|OV)...
	Starting AA second half-transformation.
	Starting AB second half-transformation.
	Starting BB second half-transformation.
	Two-electron integral transformation complete.
	(VV|VV)...
	Starting AA second half-transformation.
	Starting AB second half-transformation.
	Starting BB second half-transformation.
	Two-electron integral transformation complete.
	Frozen core energy     =   -298.07125785718893

	Size of irrep 0 of <AB|CD> integrals:      2.928 (MW) /     23.420 (MB)
	Total:                                     2.928 (MW) /     23.420 (MB)

	Size of irrep 0 of <ab|cd> integrals:      3.133 (MW) /     25.063 (MB)
	Total:                                     3.133 (MW) /     25.063 (MB)

	Size of irrep 0 of <Ab|Cd> integrals:     12.532 (MW) /    100.253 (MB)
	Total:                                    12.532 (MW) /    100.253 (MB)

	Size of irrep 0 of <IA|BC> integrals:      0.822 (MW) /      6.572 (MB)
	Total:                                     0.822 (MW) /      6.572 (MB)

	Size of irrep 0 of <ia|bc> integrals:      0.648 (MW) /      5.184 (MB)
	Total:                                     0.648 (MW) /      5.184 (MB)

	Size of irrep 0 of <Ia|Bc> integrals:      0.850 (MW) /      6.797 (MB)
	Total:                                     0.850 (MW) /      6.797 (MB)

	Size of irrep 0 of <iA|bC> integrals:      0.627 (MW) /      5.013 (MB)
	Total:                                     0.627 (MW) /      5.013 (MB)

	Size of irrep 0 of tIjAb amplitudes:       0.042 (MW) /      0.340 (MB)
	Total:                                     0.042 (MW) /      0.340 (MB)

	Nuclear Rep. energy          =     19.80459522754633
	SCF energy                   =   -290.87759812410690
	One-electron energy          =    -19.27696238130770
	Two-electron (AA) energy     =      1.61065442282641
	Two-electron (BB) energy     =      0.76449550519187
	Two-electron (AB) energy     =      4.29087695882474
	Two-electron energy          =      6.66602688684302
	Reference energy             =   -290.87759812410729

*** tstop() called on cqc05 at Thu Aug 20 19:56:00 2020
Module time:
	user time   =       1.61 seconds =       0.03 minutes
	system time =       0.85 seconds =       0.01 minutes
	total time  =          3 seconds =       0.05 minutes
Total time:
	user time   =       4.87 seconds =       0.08 minutes
	system time =       0.99 seconds =       0.02 minutes
	total time  =          6 seconds =       0.10 minutes

*** tstart() called on cqc05
*** at Thu Aug 20 19:56:00 2020

            **************************
            *                        *
            *        CCENERGY        *
            *                        *
            **************************

    Nuclear Rep. energy (wfn)     =   19.804595227546333
    SCF energy          (wfn)     = -290.877598124106896
    Reference energy    (file100) = -290.877598124107294

    Input parameters:
    -----------------
    Wave function   =     CCSD
    Reference wfn   =     UHF
    Brueckner       =     No
    Memory (Mbytes) =     250000.0
    Maxiter         =     50
    R_Convergence   =     1.0e-07
    E_Convergence   =     1.0e-06
    Restart         =     Yes
    DIIS            =     Yes
    AO Basis        =     NONE
    ABCD            =     NEW
    Cache Level     =     2
    Cache Type      =     LRU
    Print Level     =     1
    Num. of threads =     4
    # Amps to Print =     10
    Print MP2 Amps? =     No
    Analyze T2 Amps =     No
    Print Pair Ener =     No
    Local CC        =     No
    SCS-MP2         =     False
    SCSN-MP2        =     False
    SCS-CCSD        =     False

MP2 correlation energy -0.0977240455207222
                Solving CC Amplitude Equations
                ------------------------------
  Iter             Energy              RMS        T1Diag      D1Diag    New D1Diag    D2Diag
  ----     ---------------------    ---------   ----------  ----------  ----------   --------
     0        -0.097724045520725    0.000e+00    0.000000    0.000000    0.000000    0.000000
     1        -0.118187455802886    5.513e-02    0.008378    0.000000    0.000000    0.000000
     2        -0.126281490760965    2.116e-02    0.015042    0.000000    0.000000    0.000000
     3        -0.126511440540978    5.932e-03    0.017928    0.000000    0.000000    0.000000
     4        -0.126526765446067    1.944e-03    0.018735    0.000000    0.000000    0.000000
     5        -0.126522870036924    8.134e-04    0.019060    0.000000    0.000000    0.000000
     6        -0.126521311153703    2.645e-04    0.019106    0.000000    0.000000    0.000000
     7        -0.126525525549651    8.695e-05    0.019112    0.000000    0.000000    0.000000
     8        -0.126525729015197    3.614e-05    0.019114    0.000000    0.000000    0.000000
     9        -0.126525420884686    1.730e-05    0.019113    0.000000    0.000000    0.000000
    10        -0.126525368510518    8.214e-06    0.019114    0.000000    0.000000    0.000000
    11        -0.126525445877455    2.531e-06    0.019114    0.000000    0.000000    0.000000
    12        -0.126525457512265    9.331e-07    0.019114    0.000000    0.000000    0.000000
    13        -0.126525428251413    3.703e-07    0.019114    0.000000    0.000000    0.000000
    14        -0.126525422789170    1.162e-07    0.019114    0.000000    0.000000    0.000000
    15        -0.126525424162443    4.157e-08    0.019114    0.000000    0.000000    0.000000
    15        -0.126525424162443    4.157e-08    0.019114    0.000000    0.000000    0.000000

    Iterations converged.

    CCSD corr. energy   =   -0.126525424162443
    PPL corr. energy    =    0.035976686943832
    OS PPL corr. energy =    0.033728006532664
    SS PPL corr. energy =    0.002248680411167
    Largest TIA Amplitudes:
              3   2         0.0178469390
              3   1        -0.0130461759
              3   7         0.0104326173
              2   3        -0.0098919636
              1   0        -0.0094913506
              3  13        -0.0093936695
              3   8        -0.0071423302
              2  11         0.0061625086
              3  12         0.0058253565
              2   6        -0.0053814267

    Largest Tia Amplitudes:
              1   0        -0.0188536473
              0   0         0.0110489409
              1   2         0.0073173849
              0   3         0.0066894617
              0   1        -0.0066152041
              2  42        -0.0058686485
              0   8        -0.0056821923
              1   9         0.0049748250
              1  20        -0.0049031991
              1  37         0.0048163445

    Largest TIJAB Amplitudes:
      3   1   2   0        -0.0240953231
      3   2   7   3        -0.0195308809
      3   1  12   0        -0.0162684920
      3   1   1   0         0.0159048709
      3   2  11   7        -0.0157518817
      2   1   9   0        -0.0143362895
      3   2   9   0         0.0124243543
      3   2  25   3        -0.0110042810
      3   2   8   3         0.0099611263
      3   2   9   1        -0.0098947784

    Largest Tijab Amplitudes:
      2   1  10   1        -0.0114821579
      2   0  13   0        -0.0078765395
      2   1   4   1        -0.0058536990
      1   0  12   0         0.0057879367
      2   1  13   0         0.0056079296
      1   0   3   0         0.0055130757
      1   0  17   1        -0.0053234993
      2   0   7   0         0.0050991626
      2   0  19   2         0.0050379780
      2   1  27   1         0.0049362305

    Largest TIjAb Amplitudes:
      1   1   0   1        -0.0451481080
      0   0   0   1         0.0311906381
      3   1   0   1        -0.0282326901
      2   2   7   8         0.0219299844
      2   2   3  13         0.0217016728
      2   1   3   0        -0.0201531338
      2   2   0   1        -0.0194404065
      2   2   7   2         0.0188466660
      2   2  11  13        -0.0187836126
      2   2   1   2        -0.0186403261

    SCF energy       (wfn)                    = -290.877598124106896
    Reference energy (file100)                = -290.877598124107294

    Opposite-spin MP2 correlation energy      =   -0.088112400259851
    Same-spin MP2 correlation energy          =   -0.009611645260820
    MP2 correlation energy                    =   -0.097724045520722
      * MP2 total energy                      = -290.975322169628043

    Opposite-spin CCSD correlation energy     =   -0.114865798597992
    Same-spin CCSD correlation energy         =   -0.011659625970363
    CCSD correlation energy                   =   -0.126525424162443
      * CCSD total energy                     = -291.004123548269718

*** tstop() called on cqc05 at Thu Aug 20 19:56:04 2020
Module time:
	user time   =       1.74 seconds =       0.03 minutes
	system time =       1.13 seconds =       0.02 minutes
	total time  =          4 seconds =       0.07 minutes
Total time:
	user time   =       6.61 seconds =       0.11 minutes
	system time =       2.12 seconds =       0.04 minutes
	total time  =         10 seconds =       0.17 minutes

*** Psi4 exiting successfully. Buy a developer a beer!
