                               Psi4 1.2a1.dev938

  ==> Input File <==

--------------------------------------------------------------------------
# Any line starting with the # character is a comment line
memory 250000 mb
molecule molecule{
1 2
Si        -0.0508955879       -0.0000005355       -0.1035323228
H         -0.3300191419        0.0000192733        1.7157081775
H          0.4511927297        0.0000054985        1.7171216732
H          0.6485008222        1.2762022169       -0.2740075764
H          0.6484933725       -1.2762120661       -0.2739709426
}

set {
  reference uhf
  basis aug-cc-pv(t+d)z
  scf_type OUT_OF_CORE
  freeze_core true
}

energy('ccsd')
--------------------------------------------------------------------------

    Molecular point group: c1

    Geometry (in Angstrom), charge = 1, multiplicity = 2:

       Center              X                  Y                   Z               Mass
    ------------   -----------------  -----------------  -----------------  -----------------
          SI         -0.051063134432    -0.000000537303    -0.103873147591    27.976926532460
           H         -0.330186688432     0.000019271497     1.715367352709     1.007825032070
           H          0.451025183168     0.000005496697     1.716780848409     1.007825032070
           H          0.648333275668     1.276202215097    -0.274348401191     1.007825032070
           H          0.648325825968    -1.276212067903    -0.274311767391     1.007825032070

  Charge       = 1
  Multiplicity = 2
  Basis Set: AUG-CC-PV(T+D)Z
    Blend: AUG-CC-PV(T+D)Z

    Orbital Energies (a.u.)
    -----------------------

    Alpha Occupied:

       1A    -69.102972     2A     -6.448538     3A     -4.558756
       4A     -4.550763     5A     -4.547761     6A     -1.049928
       7A     -0.873187     8A     -0.769627     9A     -0.636677

    Alpha Virtual:

      10A     -0.172856    11A     -0.116955    12A     -0.100750
      13A     -0.093701    14A     -0.073656    15A     -0.067272
      16A     -0.065891    17A     -0.056876    18A     -0.046718
      19A     -0.034588    20A     -0.016265    21A     -0.013884
      22A     -0.008629    23A      0.039519    24A      0.059586
      25A      0.075847    26A      0.075860    27A      0.088945
      28A      0.094693    29A      0.094975    30A      0.115762
      31A      0.130678    32A      0.145417    33A      0.149603
      34A      0.151983    35A      0.178296    36A      0.179203
      37A      0.195315    38A      0.242206    39A      0.298014
      40A      0.306705    41A      0.312380    42A      0.313293
      43A      0.323050    44A      0.342410    45A      0.353086
      46A      0.364604    47A      0.376148    48A      0.376905
      49A      0.422355    50A      0.432785    51A      0.441259
      52A      0.459396    53A      0.467412    54A      0.483585
      55A      0.517203    56A      0.597289    57A      0.620554
      58A      0.685709    59A      0.688033    60A      0.703110
      61A      0.729247    62A      0.750491    63A      0.781802
      64A      0.824427    65A      0.824641    66A      0.834194
      67A      0.854651    68A      0.875010    69A      0.900876
      70A      0.905836    71A      0.926333    72A      0.943248
      73A      0.963446    74A      0.984426    75A      1.003930
      76A      1.021182    77A      1.031530    78A      1.083263
      79A      1.104426    80A      1.106516    81A      1.113965
      82A      1.152663    83A      1.165071    84A      1.185662
      85A      1.214948    86A      1.232874    87A      1.259283
      88A      1.299446    89A      1.302030    90A      1.370418
      91A      1.436598    92A      1.488961    93A      1.515978
      94A      1.566187    95A      1.650403    96A      1.677856
      97A      1.721861    98A      1.778485    99A      1.818740
     100A      1.839954   101A      1.938788   102A      2.050398
     103A      2.484266   104A      2.685148   105A      2.753101
     106A      2.760316   107A      2.957482   108A      3.122483
     109A      3.249214   110A      3.452436   111A      3.512026
     112A      3.516019   113A      3.676362   114A      3.714011
     115A      3.761490   116A      3.778425   117A      3.795937
     118A      3.800630   119A      3.871335   120A      3.880907
     121A      3.947813   122A      4.031576   123A      4.091581
     124A      4.108828   125A      4.136784   126A      4.157460
     127A      4.158544   128A      4.164095   129A      4.192983
     130A      4.227888   131A      4.346095   132A      4.352996
     133A      4.417240   134A      4.452653   135A      4.484718
     136A      4.762040   137A      4.762403   138A      4.803676
     139A      4.814201   140A      4.960022   141A      5.343114
     142A      5.393309   143A      5.433369   144A      5.605435
     145A      5.623996   146A      6.787907   147A      6.809261

    Beta Occupied:

       1A    -69.095936     2A     -6.437617     3A     -4.546205
       4A     -4.543455     5A     -4.534017     6A     -1.015330
       7A     -0.850433     8A     -0.752652

    Beta Virtual:

       9A     -0.229372    10A     -0.146309    11A     -0.108446
      12A     -0.082702    13A     -0.082131    14A     -0.071370
      15A     -0.057669    16A     -0.057621    17A     -0.048793
      18A     -0.041812    19A     -0.030839    20A     -0.007403
      21A     -0.002946    22A      0.004393    23A      0.045111
      24A      0.065215    25A      0.076954    26A      0.079338
      27A      0.093677    28A      0.096679    29A      0.116462
      30A      0.120947    31A      0.134201    32A      0.152854
      33A      0.160720    34A      0.161555    35A      0.187951
      36A      0.188903    37A      0.205169    38A      0.250874
      39A      0.310850    40A      0.315260    41A      0.317911
      42A      0.321545    43A      0.340833    44A      0.356094
      45A      0.363968    46A      0.372729    47A      0.381141
      48A      0.393994    49A      0.427964    50A      0.440184
      51A      0.447582    52A      0.469688    53A      0.477267
      54A      0.498992    55A      0.537451    56A      0.602498
      57A      0.627067    58A      0.689875    59A      0.692536
      60A      0.706481    61A      0.734596    62A      0.757816
      63A      0.791136    64A      0.829427    65A      0.830069
      66A      0.838534    67A      0.860166    68A      0.879779
      69A      0.903863    70A      0.912669    71A      0.935277
      72A      0.949889    73A      0.966834    74A      0.987065
      75A      1.015638    76A      1.025889    77A      1.036188
      78A      1.088843    79A      1.113947    80A      1.118063
      81A      1.122961    82A      1.172760    83A      1.175356
      84A      1.198012    85A      1.219723    86A      1.236915
      87A      1.284472    88A      1.309985    89A      1.324647
      90A      1.378067    91A      1.443899    92A      1.494923
      93A      1.527372    94A      1.572120    95A      1.652058
      96A      1.686694    97A      1.729163    98A      1.786703
      99A      1.834155   100A      1.845787   101A      1.944275
     102A      2.052410   103A      2.493915   104A      2.689879
     105A      2.759897   106A      2.787085   107A      2.965460
     108A      3.126508   109A      3.256075   110A      3.453686
     111A      3.513027   112A      3.517783   113A      3.679104
     114A      3.716971   115A      3.764503   116A      3.782062
     117A      3.799665   118A      3.804608   119A      3.874353
     120A      3.883307   121A      3.950095   122A      4.036555
     123A      4.093941   124A      4.114703   125A      4.137221
     126A      4.159929   127A      4.162229   128A      4.168042
     129A      4.196799   130A      4.233083   131A      4.351317
     132A      4.357018   133A      4.419604   134A      4.457956
     135A      4.487825   136A      4.766000   137A      4.766799
     138A      4.805594   139A      4.816956   140A      4.966173
     141A      5.343999   142A      5.395034   143A      5.435988
     144A      5.607341   145A      5.629930   146A      6.789252
     147A      6.814529

    Final Occupation by Irrep:
              A
    DOCC [     8 ]
    SOCC [     1 ]

  Energy converged.

  @UHF Final Energy:  -290.89118156554167

   => Energetics <=

    Nuclear Repulsion Energy =             19.8045952275463328
    One-Electron Energy =                -437.0776995472558610
    Two-Electron Energy =                 126.3819227541679169
    Total Energy =                       -290.8911815655416149

  UHF NO Occupations:
  HONO-2 :    7  A 1.9997427
  HONO-1 :    8  A 1.9982945
  HONO-0 :    9  A 1.0000000
  LUNO+0 :   10  A 0.0017055
  LUNO+1 :   11  A 0.0002573
  LUNO+2 :   12  A 0.0002406
  LUNO+3 :   13  A 0.0000061

Properties will be evaluated at   0.000000,   0.000000,   0.000000 Bohr

Properties computed using the SCF density matrix

  Nuclear Dipole Moment: (a.u.)
     X:     1.3277      Y:     0.0000      Z:     2.7009

  Electronic Dipole Moment: (a.u.)
     X:    -1.2734      Y:    -0.0000      Z:    -2.0422

  Dipole Moment: (a.u.)
     X:     0.0543      Y:     0.0000      Z:     0.6587     Total:     0.6610

  Dipole Moment: (Debye)
     X:     0.1381      Y:     0.0000      Z:     1.6744     Total:     1.6800

*** tstop() called on cqc05 at Thu Aug 20 20:08:26 2020
Module time:
	user time   =      45.73 seconds =       0.76 minutes
	system time =       2.55 seconds =       0.04 minutes
	total time  =         47 seconds =       0.78 minutes
Total time:
	user time   =      45.73 seconds =       0.76 minutes
	system time =       2.55 seconds =       0.04 minutes
	total time  =         47 seconds =       0.78 minutes

*** tstart() called on cqc05
*** at Thu Aug 20 20:08:26 2020

	Wfn Parameters:
	--------------------
	Wavefunction         = CCSD
	Number of irreps     = 1
	Number of MOs        = 147
	Number of active MOs = 142
	AO-Basis             = NONE
	Semicanonical        = false
	Reference            = UHF
	Print Level          = 1

	IRREP	# MOs	# FZDC	# DOCC	# SOCC	# VIRT	# FZVR
	-----	-----	------	------	------	------	------
	 A	   147	    5	    3	    1	    138	    0
	Transforming integrals...
	IWL integrals will be deleted.
	(OO|OO)...
	Presorting SO-basis two-electron integrals.
	Sorting File: SO Ints (nn|nn) nbuckets = 1
	Transforming the one-electron integrals and constructing Fock matrices
	Starting AA/AB first half-transformation.
	Sorting AA/AB half-transformed integrals.
	Starting BB first half-transformation.
	Sorting BB half-transformed integrals.
	First half integral transformation complete.
	Starting AA second half-transformation.
	Starting AB second half-transformation.
	Starting BB second half-transformation.
	Two-electron integral transformation complete.
	(OO|OV)...
	Starting AA second half-transformation.
	Starting AB second half-transformation.
	Starting BB second half-transformation.
	Two-electron integral transformation complete.
	(OO|VV)...
	Starting AA second half-transformation.
	Starting AB second half-transformation.
	Starting BB second half-transformation.
	Two-electron integral transformation complete.
	(OV|OO)...
	Starting AA/AB first half-transformation.
	Sorting AA/AB half-transformed integrals.
	Starting BB first half-transformation.
	Sorting BB half-transformed integrals.
	First half integral transformation complete.
	Starting AA second half-transformation.
	Starting AB second half-transformation.
	Starting BB second half-transformation.
	Two-electron integral transformation complete.
	(OV|OV)...
	Starting AA second half-transformation.
	Starting AB second half-transformation.
	Starting BB second half-transformation.
	Two-electron integral transformation complete.
	(OV|VV)...
	Starting AA second half-transformation.
	Starting AB second half-transformation.
	Starting BB second half-transformation.
	Two-electron integral transformation complete.
	(VV|OO)...
	Starting AA/AB first half-transformation.
	Sorting AA/AB half-transformed integrals.
	Starting BB first half-transformation.
	Sorting BB half-transformed integrals.
	First half integral transformation complete.
	Starting AA second half-transformation.
	Starting AB second half-transformation.
	Starting BB second half-transformation.
	Two-electron integral transformation complete.
	(VV|OV)...
	Starting AA second half-transformation.
	Starting AB second half-transformation.
	Starting BB second half-transformation.
	Two-electron integral transformation complete.
	(VV|VV)...
	Starting AA second half-transformation.
	Starting AB second half-transformation.
	Starting BB second half-transformation.
	Two-electron integral transformation complete.
	Frozen core energy     =   -298.07556634441329

	Size of irrep 0 of <AB|CD> integrals:     89.359 (MW) /    714.874 (MB)
	Total:                                    89.359 (MW) /    714.874 (MB)

	Size of irrep 0 of <ab|cd> integrals:     91.987 (MW) /    735.898 (MB)
	Total:                                    91.987 (MW) /    735.898 (MB)

	Size of irrep 0 of <Ab|Cd> integrals:    367.949 (MW) /   2943.593 (MB)
	Total:                                   367.949 (MW) /   2943.593 (MB)

	Size of irrep 0 of <IA|BC> integrals:     10.512 (MW) /     84.098 (MB)
	Total:                                    10.512 (MW) /     84.098 (MB)

	Size of irrep 0 of <ia|bc> integrals:      8.057 (MW) /     64.455 (MB)
	Total:                                     8.057 (MW) /     64.455 (MB)

	Size of irrep 0 of <Ia|Bc> integrals:     10.665 (MW) /     85.322 (MB)
	Total:                                    10.665 (MW) /     85.322 (MB)

	Size of irrep 0 of <iA|bC> integrals:      7.941 (MW) /     63.531 (MB)
	Total:                                     7.941 (MW) /     63.531 (MB)

	Size of irrep 0 of tIjAb amplitudes:       0.230 (MW) /      1.841 (MB)
	Total:                                     0.230 (MW) /      1.841 (MB)

	Nuclear Rep. energy          =     19.80459522754633
	SCF energy                   =   -290.89118156554167
	One-electron energy          =    -19.29258754466611
	Two-electron (AA) energy     =      1.61130723164412
	Two-electron (BB) energy     =      0.76508460847575
	Two-electron (AB) energy     =      4.29598525587129
	Two-electron energy          =      6.67237709599116
	Reference energy             =   -290.89118156554190

*** tstop() called on cqc05 at Thu Aug 20 20:09:32 2020
Module time:
	user time   =      43.82 seconds =       0.73 minutes
	system time =      21.16 seconds =       0.35 minutes
	total time  =         66 seconds =       1.10 minutes
Total time:
	user time   =      89.55 seconds =       1.49 minutes
	system time =      23.71 seconds =       0.40 minutes
	total time  =        113 seconds =       1.88 minutes

*** tstart() called on cqc05
*** at Thu Aug 20 20:09:32 2020

            **************************
            *                        *
            *        CCENERGY        *
            *                        *
            **************************

    Nuclear Rep. energy (wfn)     =   19.804595227546333
    SCF energy          (wfn)     = -290.891181565541672
    Reference energy    (file100) = -290.891181565541899

    Input parameters:
    -----------------
    Wave function   =     CCSD
    Reference wfn   =     UHF
    Brueckner       =     No
    Memory (Mbytes) =     250000.0
    Maxiter         =     50
    R_Convergence   =     1.0e-07
    E_Convergence   =     1.0e-06
    Restart         =     Yes
    DIIS            =     Yes
    AO Basis        =     NONE
    ABCD            =     NEW
    Cache Level     =     2
    Cache Type      =     LRU
    Print Level     =     1
    Num. of threads =     4
    # Amps to Print =     10
    Print MP2 Amps? =     No
    Analyze T2 Amps =     No
    Print Pair Ener =     No
    Local CC        =     No
    SCS-MP2         =     False
    SCSN-MP2        =     False
    SCS-CCSD        =     False

MP2 correlation energy -0.1172362305022014
                Solving CC Amplitude Equations
                ------------------------------
  Iter             Energy              RMS        T1Diag      D1Diag    New D1Diag    D2Diag
  ----     ---------------------    ---------   ----------  ----------  ----------   --------
     0        -0.117236230502249    0.000e+00    0.000000    0.000000    0.000000    0.000000
     1        -0.136034439239130    5.407e-02    0.009147    0.000000    0.000000    0.000000
     2        -0.144028557462998    2.134e-02    0.016178    0.000000    0.000000    0.000000
     3        -0.144230614592766    5.926e-03    0.019027    0.000000    0.000000    0.000000
     4        -0.144226939427350    2.131e-03    0.019936    0.000000    0.000000    0.000000
     5        -0.144223897633210    9.083e-04    0.020329    0.000000    0.000000    0.000000
     6        -0.144222950302466    2.879e-04    0.020385    0.000000    0.000000    0.000000
     7        -0.144226645735115    1.065e-04    0.020385    0.000000    0.000000    0.000000
     8        -0.144227668598151    4.070e-05    0.020389    0.000000    0.000000    0.000000
     9        -0.144227168900118    1.872e-05    0.020389    0.000000    0.000000    0.000000
    10        -0.144227127984887    9.384e-06    0.020388    0.000000    0.000000    0.000000
    11        -0.144227150117118    3.766e-06    0.020389    0.000000    0.000000    0.000000
    12        -0.144227246392504    1.341e-06    0.020389    0.000000    0.000000    0.000000
    13        -0.144227249827119    4.620e-07    0.020389    0.000000    0.000000    0.000000
    14        -0.144227244182407    1.924e-07    0.020389    0.000000    0.000000    0.000000
    15        -0.144227241222996    7.238e-08    0.020389    0.000000    0.000000    0.000000
    15        -0.144227241222996    7.238e-08    0.020389    0.000000    0.000000    0.000000

    Iterations converged.

    CCSD corr. energy   =   -0.144227241222996
    PPL corr. energy    =    0.044858495078202
    OS PPL corr. energy =    0.042051817167503
    SS PPL corr. energy =    0.002806677910701
    Largest TIA Amplitudes:
              3   2         0.0186677387
              3   1        -0.0150049274
              3   7        -0.0118959483
              2   3         0.0100186144
              1   0        -0.0097968335
              3  22        -0.0097932697
              2   6        -0.0067227289
              2  11        -0.0065192340
              3  12         0.0061628172
              3  25        -0.0058542780

    Largest Tia Amplitudes:
              1   0        -0.0186637978
              0   0         0.0117047907
              0   1        -0.0081755923
              1   2         0.0076396093
              0   3        -0.0075132103
              0   8        -0.0056935432
              0   2        -0.0054261741
              1   3         0.0051658980
              1   8         0.0047618044
              1   6         0.0047229530

    Largest TIJAB Amplitudes:
      3   1   2   0        -0.0233345561
      3   2   7   3        -0.0165564128
      3   1   1   0         0.0160663579
      3   2  17   3         0.0119965471
      3   1  10   0        -0.0116401606
      3   2  11   7        -0.0114275006
      3   1  22   0         0.0108080457
      2   1   8   0         0.0108067171
      3   2   5   3        -0.0103207912

      * MP2 total energy                      = -291.008417796044114
      * CCSD total energy                     = -291.035408806764906
*** Psi4 exiting successfully. Buy a developer a beer!
