                               Psi4 1.2a1.dev938

  ==> Input File <==

--------------------------------------------------------------------------
# Any line starting with the # character is a comment line
memory 250000 mb
molecule molecule{
0 3
O          0.0000000000        0.0000000000        0.0000000000
}

set {
  reference uhf
  basis aug-cc-pv(d+d)z
  scf_type OUT_OF_CORE
  freeze_core true
}

energy('ccsd')
--------------------------------------------------------------------------

    Molecular point group: d2h
    Geometry (in Angstrom), charge = 0, multiplicity = 3:

       Center              X                  Y                   Z               Mass
    ------------   -----------------  -----------------  -----------------  -----------------
           O          0.000000000000     0.000000000000     0.000000000000    15.994914619560

  Charge       = 0
  Multiplicity = 3
  Basis Set: AUG-CC-PV(D+D)Z
    Blend: AUG-CC-PV(D+D)Z

    Orbital Energies (a.u.)
    -----------------------

    Alpha Occupied:

       1Ag   -20.720827     2Ag    -1.422248     1B2u   -0.710238
       1B3u   -0.710238     1B1u   -0.612563

    Alpha Virtual:

       3Ag     0.180594     2B2u    0.183670     2B3u    0.183670
       2B1u    0.196622     4Ag     0.916926     1B1g    0.916926
       1B3g    0.946675     1B2g    0.946675     5Ag     0.956680
       3B3u    1.243361     3B2u    1.243361     3B1u    1.302416
       6Ag     1.710410     7Ag     3.384795     2B1g    3.384795
       2B2g    3.447037     2B3g    3.447037     8Ag     3.469012

    Beta Occupied:

       1Ag   -20.640143     2Ag    -1.081990     1B1u   -0.519986

    Beta Virtual:

       1B2u    0.065683     1B3u    0.065683     3Ag     0.198631
       2B1u    0.203061     2B2u    0.269799     2B3u    0.269799
       4Ag     0.983034     1B3g    0.984877     1B2g    0.984877
       1B1g    0.993460     5Ag     0.993460     3B1u    1.346463
       3B2u    1.442175     3B3u    1.442175     6Ag     1.803830
       7Ag     3.557092     2B3g    3.562922     2B2g    3.562922
       8Ag     3.583779     2B1g    3.583779

    Final Occupation by Irrep:
             Ag   B1g   B2g   B3g    Au   B1u   B2u   B3u
    DOCC [     2,    0,    0,    0,    0,    1,    0,    0 ]
    SOCC [     0,    0,    0,    0,    0,    0,    1,    1 ]

  Energy converged.

  @UHF Final Energy:   -74.79660075443979

   => Energetics <=

    Nuclear Repulsion Energy =              0.0000000000000000
    One-Electron Energy =                -103.1749688138708478
    Two-Electron Energy =                  28.3783680594310468
    Total Energy =                        -74.7966007544397939

  UHF NO Occupations:
  HONO-2 :    2 Ag 1.9973632
  HONO-1 :    1B2u 1.0000000
  HONO-0 :    1B3u 1.0000000
  LUNO+0 :    3 Ag 0.0026368
  LUNO+1 :    2B1u 0.0015770
  LUNO+2 :    4 Ag 0.0000009
  LUNO+3 :    5 Ag 0.0000000

Properties will be evaluated at   0.000000,   0.000000,   0.000000 Bohr

Properties computed using the SCF density matrix

  Nuclear Dipole Moment: (a.u.)
     X:     0.0000      Y:     0.0000      Z:     0.0000

  Electronic Dipole Moment: (a.u.)
     X:     0.0000      Y:     0.0000      Z:     0.0000

  Dipole Moment: (a.u.)
     X:     0.0000      Y:     0.0000      Z:     0.0000     Total:     0.0000

  Dipole Moment: (Debye)
     X:     0.0000      Y:     0.0000      Z:     0.0000     Total:     0.0000

*** tstop() called on cqc05 at Thu Aug 20 19:56:30 2020
Module time:
	user time   =       0.23 seconds =       0.00 minutes
	system time =       0.01 seconds =       0.00 minutes
	total time  =          0 seconds =       0.00 minutes
Total time:
	user time   =       0.23 seconds =       0.00 minutes
	system time =       0.01 seconds =       0.00 minutes
	total time  =          0 seconds =       0.00 minutes

*** tstart() called on cqc05
*** at Thu Aug 20 19:56:30 2020

	Wfn Parameters:
	--------------------
	Wavefunction         = CCSD
	Number of irreps     = 8
	Number of MOs        = 23
	Number of active MOs = 22
	AO-Basis             = NONE
	Semicanonical        = false
	Reference            = UHF
	Print Level          = 1

	IRREP	# MOs	# FZDC	# DOCC	# SOCC	# VIRT	# FZVR
	-----	-----	------	------	------	------	------
	 Ag	   8	    1	    1	    0	    6	    0
	 B1g	   2	    0	    0	    0	    2	    0
	 B2g	   2	    0	    0	    0	    2	    0
	 B3g	   2	    0	    0	    0	    2	    0
	 Au	   0	    0	    0	    0	    0	    0
	 B1u	   3	    0	    1	    0	    2	    0
	 B2u	   3	    0	    0	    1	    2	    0
	 B3u	   3	    0	    0	    1	    2	    0
	Transforming integrals...
	IWL integrals will be deleted.
	(OO|OO)...
	Presorting SO-basis two-electron integrals.
	Sorting File: SO Ints (nn|nn) nbuckets = 1
	Transforming the one-electron integrals and constructing Fock matrices
	Starting AA/AB first half-transformation.
	Sorting AA/AB half-transformed integrals.
	Starting BB first half-transformation.
	Sorting BB half-transformed integrals.
	First half integral transformation complete.
	Starting AA second half-transformation.
	Starting AB second half-transformation.
	Starting BB second half-transformation.
	Two-electron integral transformation complete.
	(OO|OV)...
	Starting AA second half-transformation.
	Starting AB second half-transformation.
	Starting BB second half-transformation.
	Two-electron integral transformation complete.
	(OO|VV)...
	Starting AA second half-transformation.
	Starting AB second half-transformation.
	Starting BB second half-transformation.
	Two-electron integral transformation complete.
	(OV|OO)...
	Starting AA/AB first half-transformation.
	Sorting AA/AB half-transformed integrals.
	Starting BB first half-transformation.
	Sorting BB half-transformed integrals.
	First half integral transformation complete.
	Starting AA second half-transformation.
	Starting AB second half-transformation.
	Starting BB second half-transformation.
	Two-electron integral transformation complete.
	(OV|OV)...
	Starting AA second half-transformation.
	Starting AB second half-transformation.
	Starting BB second half-transformation.
	Two-electron integral transformation complete.
	(OV|VV)...
	Starting AA second half-transformation.
	Starting AB second half-transformation.
	Starting BB second half-transformation.
	Two-electron integral transformation complete.
	(VV|OO)...
	Starting AA/AB first half-transformation.
	Sorting AA/AB half-transformed integrals.
	Starting BB first half-transformation.
	Sorting BB half-transformed integrals.
	First half integral transformation complete.
	Starting AA second half-transformation.
	Starting AB second half-transformation.
	Starting BB second half-transformation.
	Two-electron integral transformation complete.
	(VV|OV)...
	Starting AA second half-transformation.
	Starting AB second half-transformation.
	Starting BB second half-transformation.
	Two-electron integral transformation complete.
	(VV|VV)...
	Starting AA second half-transformation.
	Starting AB second half-transformation.
	Starting BB second half-transformation.
	Two-electron integral transformation complete.
	Frozen core energy     =    -59.10512122841604

	Size of irrep 0 of <AB|CD> integrals:      0.000 (MW) /      0.004 (MB)
	Size of irrep 1 of <AB|CD> integrals:      0.000 (MW) /      0.003 (MB)
	Size of irrep 2 of <AB|CD> integrals:      0.000 (MW) /      0.003 (MB)
	Size of irrep 3 of <AB|CD> integrals:      0.000 (MW) /      0.003 (MB)
	Size of irrep 4 of <AB|CD> integrals:      0.000 (MW) /      0.001 (MB)
	Size of irrep 5 of <AB|CD> integrals:      0.000 (MW) /      0.003 (MB)
	Size of irrep 6 of <AB|CD> integrals:      0.000 (MW) /      0.003 (MB)
	Size of irrep 7 of <AB|CD> integrals:      0.000 (MW) /      0.003 (MB)
	Total:                                     0.003 (MW) /      0.024 (MB)

	Size of irrep 0 of <ab|cd> integrals:      0.001 (MW) /      0.005 (MB)
	Size of irrep 1 of <ab|cd> integrals:      0.001 (MW) /      0.005 (MB)
	Size of irrep 2 of <ab|cd> integrals:      0.000 (MW) /      0.004 (MB)
	Size of irrep 3 of <ab|cd> integrals:      0.000 (MW) /      0.004 (MB)
	Size of irrep 4 of <ab|cd> integrals:      0.000 (MW) /      0.002 (MB)
	Size of irrep 5 of <ab|cd> integrals:      0.001 (MW) /      0.005 (MB)
	Size of irrep 6 of <ab|cd> integrals:      0.001 (MW) /      0.006 (MB)
	Size of irrep 7 of <ab|cd> integrals:      0.001 (MW) /      0.006 (MB)
	Total:                                     0.005 (MW) /      0.037 (MB)

	Size of irrep 0 of <Ab|Cd> integrals:      0.004 (MW) /      0.033 (MB)
	Size of irrep 1 of <Ab|Cd> integrals:      0.002 (MW) /      0.015 (MB)
	Size of irrep 2 of <Ab|Cd> integrals:      0.002 (MW) /      0.014 (MB)
	Size of irrep 3 of <Ab|Cd> integrals:      0.002 (MW) /      0.014 (MB)
	Size of irrep 4 of <Ab|Cd> integrals:      0.001 (MW) /      0.006 (MB)
	Size of irrep 5 of <Ab|Cd> integrals:      0.002 (MW) /      0.015 (MB)
	Size of irrep 6 of <Ab|Cd> integrals:      0.002 (MW) /      0.018 (MB)
	Size of irrep 7 of <Ab|Cd> integrals:      0.002 (MW) /      0.018 (MB)
	Total:                                     0.017 (MW) /      0.135 (MB)

	Size of irrep 0 of <IA|BC> integrals:      0.001 (MW) /      0.006 (MB)
	Size of irrep 1 of <IA|BC> integrals:      0.000 (MW) /      0.002 (MB)
	Size of irrep 2 of <IA|BC> integrals:      0.000 (MW) /      0.002 (MB)
	Size of irrep 3 of <IA|BC> integrals:      0.000 (MW) /      0.002 (MB)
	Size of irrep 4 of <IA|BC> integrals:      0.000 (MW) /      0.001 (MB)
	Size of irrep 5 of <IA|BC> integrals:      0.000 (MW) /      0.004 (MB)
	Size of irrep 6 of <IA|BC> integrals:      0.000 (MW) /      0.004 (MB)
	Size of irrep 7 of <IA|BC> integrals:      0.000 (MW) /      0.004 (MB)
	Total:                                     0.003 (MW) /      0.024 (MB)

	Size of irrep 0 of <ia|bc> integrals:      0.001 (MW) /      0.004 (MB)
	Size of irrep 1 of <ia|bc> integrals:      0.000 (MW) /      0.001 (MB)
	Size of irrep 2 of <ia|bc> integrals:      0.000 (MW) /      0.002 (MB)
	Size of irrep 3 of <ia|bc> integrals:      0.000 (MW) /      0.002 (MB)
	Size of irrep 4 of <ia|bc> integrals:      0.000 (MW) /      0.001 (MB)
	Size of irrep 5 of <ia|bc> integrals:      0.000 (MW) /      0.003 (MB)
	Size of irrep 6 of <ia|bc> integrals:      0.000 (MW) /      0.002 (MB)
	Size of irrep 7 of <ia|bc> integrals:      0.000 (MW) /      0.002 (MB)
	Total:                                     0.002 (MW) /      0.017 (MB)

	Size of irrep 0 of <Ia|Bc> integrals:      0.001 (MW) /      0.007 (MB)
	Size of irrep 1 of <Ia|Bc> integrals:      0.000 (MW) /      0.003 (MB)
	Size of irrep 2 of <Ia|Bc> integrals:      0.000 (MW) /      0.002 (MB)
	Size of irrep 3 of <Ia|Bc> integrals:      0.000 (MW) /      0.002 (MB)
	Size of irrep 4 of <Ia|Bc> integrals:      0.000 (MW) /      0.001 (MB)
	Size of irrep 5 of <Ia|Bc> integrals:      0.001 (MW) /      0.004 (MB)
	Size of irrep 6 of <Ia|Bc> integrals:      0.001 (MW) /      0.005 (MB)
	Size of irrep 7 of <Ia|Bc> integrals:      0.001 (MW) /      0.005 (MB)
	Total:                                     0.004 (MW) /      0.030 (MB)

	Size of irrep 0 of <iA|bC> integrals:      0.001 (MW) /      0.004 (MB)
	Size of irrep 1 of <iA|bC> integrals:      0.000 (MW) /      0.001 (MB)
	Size of irrep 2 of <iA|bC> integrals:      0.000 (MW) /      0.001 (MB)
	Size of irrep 3 of <iA|bC> integrals:      0.000 (MW) /      0.001 (MB)
	Size of irrep 4 of <iA|bC> integrals:      0.000 (MW) /      0.000 (MB)
	Size of irrep 5 of <iA|bC> integrals:      0.000 (MW) /      0.003 (MB)
	Size of irrep 6 of <iA|bC> integrals:      0.000 (MW) /      0.002 (MB)
	Size of irrep 7 of <iA|bC> integrals:      0.000 (MW) /      0.002 (MB)
	Total:                                     0.002 (MW) /      0.014 (MB)

	Size of irrep 0 of tIjAb amplitudes:       0.000 (MW) /      0.001 (MB)
	Size of irrep 1 of tIjAb amplitudes:       0.000 (MW) /      0.000 (MB)
	Size of irrep 2 of tIjAb amplitudes:       0.000 (MW) /      0.000 (MB)
	Size of irrep 3 of tIjAb amplitudes:       0.000 (MW) /      0.000 (MB)
	Size of irrep 4 of tIjAb amplitudes:       0.000 (MW) /      0.000 (MB)
	Size of irrep 5 of tIjAb amplitudes:       0.000 (MW) /      0.001 (MB)
	Size of irrep 6 of tIjAb amplitudes:       0.000 (MW) /      0.000 (MB)
	Size of irrep 7 of tIjAb amplitudes:       0.000 (MW) /      0.000 (MB)
	Total:                                     0.000 (MW) /      0.003 (MB)

	Nuclear Rep. energy          =      0.00000000000000
	SCF energy                   =    -74.79660075443979
	One-electron energy          =    -26.32569647145599
	Two-electron (AA) energy     =      3.97584945987054
	Two-electron (BB) energy     =      0.58728736059271
	Two-electron (AB) energy     =      6.07108012496896
	Two-electron energy          =     10.63421694543221
	Reference energy             =    -74.79660075443982

*** tstop() called on cqc05 at Thu Aug 20 19:56:30 2020
Module time:
	user time   =       0.03 seconds =       0.00 minutes
	system time =       0.02 seconds =       0.00 minutes
	total time  =          0 seconds =       0.00 minutes
Total time:
	user time   =       0.26 seconds =       0.00 minutes
	system time =       0.03 seconds =       0.00 minutes
	total time  =          0 seconds =       0.00 minutes

*** tstart() called on cqc05
*** at Thu Aug 20 19:56:30 2020

            **************************
            *                        *
            *        CCENERGY        *
            *                        *
            **************************

    Nuclear Rep. energy (wfn)     =    0.000000000000000
    SCF energy          (wfn)     =  -74.796600754439794
    Reference energy    (file100) =  -74.796600754439822

    Input parameters:
    -----------------
    Wave function   =     CCSD
    Reference wfn   =     UHF
    Brueckner       =     No
    Memory (Mbytes) =     250000.0
    Maxiter         =     50
    R_Convergence   =     1.0e-07
    E_Convergence   =     1.0e-06
    Restart         =     Yes
    DIIS            =     Yes
    AO Basis        =     NONE
    ABCD            =     NEW
    Cache Level     =     2
    Cache Type      =     LRU
    Print Level     =     1
    Num. of threads =     4
    # Amps to Print =     10
    Print MP2 Amps? =     No
    Analyze T2 Amps =     No
    Print Pair Ener =     No
    Local CC        =     No
    SCS-MP2         =     False
    SCSN-MP2        =     False
    SCS-CCSD        =     False

MP2 correlation energy -0.1103662285985568
                Solving CC Amplitude Equations
                ------------------------------
  Iter             Energy              RMS        T1Diag      D1Diag    New D1Diag    D2Diag
  ----     ---------------------    ---------   ----------  ----------  ----------   --------
     0        -0.110366228598557    0.000e+00    0.000000    0.000000    0.000000    0.000000
     1        -0.123173815448444    3.382e-02    0.009177    0.000000    0.000000    0.000000
     2        -0.126730114121518    1.132e-02    0.011921    0.000000    0.000000    0.000000
     3        -0.127239567871659    4.594e-03    0.013416    0.000000    0.000000    0.000000
     4        -0.127204100570897    2.008e-03    0.013701    0.000000    0.000000    0.000000
     5        -0.127229563560639    8.266e-04    0.013712    0.000000    0.000000    0.000000
     6        -0.127241801291852    2.219e-04    0.013685    0.000000    0.000000    0.000000
     7        -0.127241373304530    5.692e-05    0.013680    0.000000    0.000000    0.000000
     8        -0.127241030497522    1.794e-05    0.013684    0.000000    0.000000    0.000000
     9        -0.127240893885400    4.411e-06    0.013685    0.000000    0.000000    0.000000
    10        -0.127240884690985    1.091e-06    0.013685    0.000000    0.000000    0.000000
    11        -0.127240881713808    2.693e-07    0.013685    0.000000    0.000000    0.000000
    12        -0.127240878566319    9.817e-08    0.013685    0.000000    0.000000    0.000000
    12        -0.127240878566319    9.817e-08    0.013685    0.000000    0.000000    0.000000

    Iterations converged.

    CCSD corr. energy   =   -0.127240878566319
    PPL corr. energy    =    0.021772704783886
    OS PPL corr. energy =    0.017906514719984
    SS PPL corr. energy =    0.003866190063902
    Largest TIA Amplitudes:
              1  12        -0.0166645644
              2  14        -0.0132645765
              3  16        -0.0132645765
              0   0         0.0082223067
              1  13        -0.0051633570
              2  15        -0.0045520672
              3  17        -0.0045520672
              0   2         0.0029227699
              0   3        -0.0014480384
              0   5         0.0007991844

    Largest Tia Amplitudes:
              1  12        -0.0155420570
              0   1         0.0078298327
              0   4        -0.0048927570
              0   3        -0.0038877264
              0   0        -0.0022656842
              1  13        -0.0000642368

    Largest TIJAB Amplitudes:
      3   2  17  15        -0.0284277944
      3   1  17  13        -0.0280623693
      2   1  15  13        -0.0280623693
      3   2   6   1         0.0164917293
      3   1   8   2         0.0158716174
      2   1  10   2         0.0158716174
      3   1  17  12        -0.0154809703
      2   1  15  12        -0.0154809703
      2   0  15   3        -0.0145743309
      3   0  17   3        -0.0145743309

    Largest Tijab Amplitudes:
      1   0  14  10         0.0139196504
      1   0  17   8         0.0139196504
      1   0  13   3         0.0129776674
      1   0  15  10         0.0115138580
      1   0  18   8         0.0115138580
      1   0  13   0        -0.0085186902
      1   0  14  11        -0.0078875927
      1   0  17   9        -0.0078875927
      1   0  12   0        -0.0075544562
      1   0  12   3         0.0074686503

    Largest TIjAb Amplitudes:
      1   1  13  13        -0.0523716939
      3   1  17  13        -0.0365219705
      2   1  15  13        -0.0365219705
      1   1  13  12        -0.0298010780
      1   1  12  13        -0.0277319802
      0   1   3  13        -0.0270995008
      1   0  13   3         0.0270228678
      2   0  15   3         0.0265635769
      3   0  17   3         0.0265635769
      2   0   1  14         0.0261611285

    SCF energy       (wfn)                    =  -74.796600754439794

      * MP2 total energy                      =  -74.906966983038373
      * CCSD total energy                     =  -74.923841633006148
*** Psi4 exiting successfully. Buy a developer a beer!
