                               Psi4 1.2a1.dev938

  ==> Input File <==

--------------------------------------------------------------------------
# Any line starting with the # character is a comment line
memory 250000 mb
molecule molecule{
0 3
O          0.0000000000        0.0000000000        0.0000000000
}

set {
  reference uhf
  basis aug-cc-pv(t+d)z
  scf_type OUT_OF_CORE
  freeze_core true
}

energy('ccsd')
--------------------------------------------------------------------------

    Molecular point group: d2h
    Geometry (in Angstrom), charge = 0, multiplicity = 3:

       Center              X                  Y                   Z               Mass
    ------------   -----------------  -----------------  -----------------  -----------------
           O          0.000000000000     0.000000000000     0.000000000000    15.994914619560

  Charge       = 0
  Multiplicity = 3
  Basis Set: AUG-CC-PV(T+D)Z
    Blend: AUG-CC-PV(T+D)Z

    Orbital Energies (a.u.)
    -----------------------

    Alpha Occupied:

       1Ag   -20.710799     2Ag    -1.419560     1B2u   -0.710995
       1B1u   -0.710995     1B3u   -0.611817

    Alpha Virtual:

       2B2u    0.153155     2B1u    0.153155     3Ag     0.155500
       2B3u    0.162737     1B3g    0.622787     4Ag     0.622787
       1B1g    0.640524     1B2g    0.640524     5Ag     0.646666
       3B2u    0.866835     3B1u    0.866835     3B3u    0.910719
       6Ag     1.261008     4B1u    1.994990     4B2u    1.994990
       1Au     2.018401     4B3u    2.018401     5B1u    2.032757
       5B2u    2.032757     5B3u    2.037604     2B3g    2.040336
       7Ag     2.040336     2B2g    2.088868     2B1g    2.088868
       8Ag     2.106187     6B2u    4.060745     6B1u    4.060745
       6B3u    4.134690     7B2u    6.332556     7B1u    6.332556
       2Au     6.378992     7B3u    6.378992     8B1u    6.407348
       8B2u    6.407348     8B3u    6.416893     3B3g    6.830167
       9Ag     6.830167     3B1g    6.896470     3B2g    6.896470
      10Ag     6.919018    11Ag     8.263217

    Beta Occupied:

       1Ag   -20.632305     2Ag    -1.077293     1B3u   -0.521805

    Beta Virtual:

       1B2u    0.064869     1B1u    0.064869     2B3u    0.166982
       3Ag     0.169317     2B2u    0.227045     2B1u    0.227045
       4Ag     0.655919     1B1g    0.655941     1B2g    0.655941
       1B3g    0.657479     5Ag     0.657479     3B3u    0.939694
       3B2u    1.019770     3B1u    1.019770     6Ag     1.340198
       4B2u    2.033286     4B1u    2.033286     1Au     2.042983
       4B3u    2.042983     5B1u    2.048749     5B2u    2.048749
       5B3u    2.050654     7Ag     2.167089     2B2g    2.172678
       2B1g    2.172678     2B3g    2.192789     8Ag     2.192789
       6B3u    4.182059     6B2u    4.233231     6B1u    4.233231
       7B2u    6.441418     7B1u    6.441418     2Au     6.455738
       7B3u    6.455738     8B1u    6.464252     8B2u    6.464252
       8B3u    6.467076     9Ag     7.007107     3B1g    7.010017
       3B2g    7.010017     3B3g    7.019551    10Ag     7.019551
      11Ag     8.348993

    Final Occupation by Irrep:
             Ag   B1g   B2g   B3g    Au   B1u   B2u   B3u
    DOCC [     2,    0,    0,    0,    0,    0,    0,    1 ]
    SOCC [     0,    0,    0,    0,    0,    1,    1,    0 ]

  Energy converged.

  @UHF Final Energy:   -74.81298220662146

   => Energetics <=

    Nuclear Repulsion Energy =              0.0000000000000000
    One-Electron Energy =                -103.2303942955277307
    Two-Electron Energy =                  28.4174120889062820
    PCM Polarization Energy =               0.0000000000000000
    Total Energy =                        -74.8129822066214558

    Alert: EFP and PCM quantities not currently incorporated into SCF psivars.
  UHF NO Occupations:
  HONO-2 :    2 Ag 1.9970915
  HONO-1 :    1B1u 1.0000000
  HONO-0 :    1B2u 1.0000000
  LUNO+0 :    3 Ag 0.0029085
  LUNO+1 :    2B3u 0.0016945
  LUNO+2 :    4 Ag 0.0000024
  LUNO+3 :    3B3u 0.0000000

Properties will be evaluated at   0.000000,   0.000000,   0.000000 Bohr

Properties computed using the SCF density matrix

  Nuclear Dipole Moment: (a.u.)
     X:     0.0000      Y:     0.0000      Z:     0.0000

  Electronic Dipole Moment: (a.u.)
     X:     0.0000      Y:     0.0000      Z:     0.0000

  Dipole Moment: (a.u.)
     X:     0.0000      Y:     0.0000      Z:     0.0000     Total:     0.0000

  Dipole Moment: (Debye)
     X:     0.0000      Y:     0.0000      Z:     0.0000     Total:     0.0000

*** tstop() called on cqc05 at Thu Aug 20 20:11:14 2020
Module time:
	user time   =       0.40 seconds =       0.01 minutes
	system time =       0.02 seconds =       0.00 minutes
	total time  =          0 seconds =       0.00 minutes
Total time:
	user time   =       0.40 seconds =       0.01 minutes
	system time =       0.02 seconds =       0.00 minutes
	total time  =          0 seconds =       0.00 minutes

*** tstart() called on cqc05
*** at Thu Aug 20 20:11:14 2020

	Wfn Parameters:
	--------------------
	Wavefunction         = CCSD
	Number of irreps     = 8
	Number of MOs        = 46
	Number of active MOs = 45
	AO-Basis             = NONE
	Semicanonical        = false
	Reference            = UHF
	Print Level          = 1

	IRREP	# MOs	# FZDC	# DOCC	# SOCC	# VIRT	# FZVR
	-----	-----	------	------	------	------	------
	 Ag	   11	    1	    1	    0	    9	    0
	 B1g	   3	    0	    0	    0	    3	    0
	 B2g	   3	    0	    0	    0	    3	    0
	 B3g	   3	    0	    0	    0	    3	    0
	 Au	   2	    0	    0	    0	    2	    0
	 B1u	   8	    0	    0	    1	    7	    0
	 B2u	   8	    0	    0	    1	    7	    0
	 B3u	   8	    0	    1	    0	    7	    0
	Transforming integrals...
	IWL integrals will be deleted.
	(OO|OO)...
	Presorting SO-basis two-electron integrals.
	Sorting File: SO Ints (nn|nn) nbuckets = 1
	Transforming the one-electron integrals and constructing Fock matrices
	Starting AA/AB first half-transformation.
	Sorting AA/AB half-transformed integrals.
	Starting BB first half-transformation.
	Sorting BB half-transformed integrals.
	First half integral transformation complete.
	Starting AA second half-transformation.
	Starting AB second half-transformation.
	Starting BB second half-transformation.
	Two-electron integral transformation complete.
	(OO|OV)...
	Starting AA second half-transformation.
	Starting AB second half-transformation.
	Starting BB second half-transformation.
	Two-electron integral transformation complete.
	(OO|VV)...
	Starting AA second half-transformation.
	Starting AB second half-transformation.
	Starting BB second half-transformation.
	Two-electron integral transformation complete.
	(OV|OO)...
	Starting AA/AB first half-transformation.
	Sorting AA/AB half-transformed integrals.
	Starting BB first half-transformation.
	Sorting BB half-transformed integrals.
	First half integral transformation complete.
	Starting AA second half-transformation.
	Starting AB second half-transformation.
	Starting BB second half-transformation.
	Two-electron integral transformation complete.
	(OV|OV)...
	Starting AA second half-transformation.
	Starting AB second half-transformation.
	Starting BB second half-transformation.
	Two-electron integral transformation complete.
	(OV|VV)...
	Starting AA second half-transformation.
	Starting AB second half-transformation.
	Starting BB second half-transformation.
	Two-electron integral transformation complete.
	(VV|OO)...
	Starting AA/AB first half-transformation.
	Sorting AA/AB half-transformed integrals.
	Starting BB first half-transformation.
	Sorting BB half-transformed integrals.
	First half integral transformation complete.
	Starting AA second half-transformation.
	Starting AB second half-transformation.
	Starting BB second half-transformation.
	Two-electron integral transformation complete.
	(VV|OV)...
	Starting AA second half-transformation.
	Starting AB second half-transformation.
	Starting BB second half-transformation.
	Two-electron integral transformation complete.
	(VV|VV)...
	Starting AA second half-transformation.
	Starting AB second half-transformation.
	Starting BB second half-transformation.
	Two-electron integral transformation complete.
	Frozen core energy     =    -59.10545440733469

	Size of irrep 0 of <AB|CD> integrals:      0.012 (MW) /      0.095 (MB)
	Size of irrep 1 of <AB|CD> integrals:      0.010 (MW) /      0.078 (MB)
	Size of irrep 2 of <AB|CD> integrals:      0.010 (MW) /      0.078 (MB)
	Size of irrep 3 of <AB|CD> integrals:      0.010 (MW) /      0.078 (MB)
	Size of irrep 4 of <AB|CD> integrals:      0.007 (MW) /      0.052 (MB)
	Size of irrep 5 of <AB|CD> integrals:      0.012 (MW) /      0.099 (MB)
	Size of irrep 6 of <AB|CD> integrals:      0.012 (MW) /      0.099 (MB)
	Size of irrep 7 of <AB|CD> integrals:      0.012 (MW) /      0.099 (MB)
	Total:                                     0.085 (MW) /      0.678 (MB)

	Size of irrep 0 of <ab|cd> integrals:      0.015 (MW) /      0.121 (MB)
	Size of irrep 1 of <ab|cd> integrals:      0.012 (MW) /      0.093 (MB)
	Size of irrep 2 of <ab|cd> integrals:      0.012 (MW) /      0.093 (MB)
	Size of irrep 3 of <ab|cd> integrals:      0.013 (MW) /      0.104 (MB)
	Size of irrep 4 of <ab|cd> integrals:      0.008 (MW) /      0.061 (MB)
	Size of irrep 5 of <ab|cd> integrals:      0.015 (MW) /      0.121 (MB)
	Size of irrep 6 of <ab|cd> integrals:      0.015 (MW) /      0.121 (MB)
	Size of irrep 7 of <ab|cd> integrals:      0.014 (MW) /      0.110 (MB)
	Total:                                     0.103 (MW) /      0.824 (MB)

	Size of irrep 0 of <Ab|Cd> integrals:      0.075 (MW) /      0.596 (MB)
	Size of irrep 1 of <Ab|Cd> integrals:      0.043 (MW) /      0.343 (MB)
	Size of irrep 2 of <Ab|Cd> integrals:      0.043 (MW) /      0.343 (MB)
	Size of irrep 3 of <Ab|Cd> integrals:      0.045 (MW) /      0.360 (MB)
	Size of irrep 4 of <Ab|Cd> integrals:      0.028 (MW) /      0.226 (MB)
	Size of irrep 5 of <Ab|Cd> integrals:      0.055 (MW) /      0.438 (MB)
	Size of irrep 6 of <Ab|Cd> integrals:      0.055 (MW) /      0.438 (MB)
	Size of irrep 7 of <Ab|Cd> integrals:      0.052 (MW) /      0.416 (MB)
	Total:                                     0.395 (MW) /      3.159 (MB)

	Size of irrep 0 of <IA|BC> integrals:      0.008 (MW) /      0.062 (MB)
	Size of irrep 1 of <IA|BC> integrals:      0.004 (MW) /      0.030 (MB)
	Size of irrep 2 of <IA|BC> integrals:      0.004 (MW) /      0.030 (MB)
	Size of irrep 3 of <IA|BC> integrals:      0.004 (MW) /      0.030 (MB)
	Size of irrep 4 of <IA|BC> integrals:      0.002 (MW) /      0.014 (MB)
	Size of irrep 5 of <IA|BC> integrals:      0.005 (MW) /      0.039 (MB)
	Size of irrep 6 of <IA|BC> integrals:      0.005 (MW) /      0.039 (MB)
	Size of irrep 7 of <IA|BC> integrals:      0.005 (MW) /      0.039 (MB)
	Total:                                     0.035 (MW) /      0.284 (MB)

	Size of irrep 0 of <ia|bc> integrals:      0.005 (MW) /      0.037 (MB)
	Size of irrep 1 of <ia|bc> integrals:      0.002 (MW) /      0.019 (MB)
	Size of irrep 2 of <ia|bc> integrals:      0.002 (MW) /      0.019 (MB)
	Size of irrep 3 of <ia|bc> integrals:      0.001 (MW) /      0.009 (MB)
	Size of irrep 4 of <ia|bc> integrals:      0.001 (MW) /      0.007 (MB)
	Size of irrep 5 of <ia|bc> integrals:      0.003 (MW) /      0.022 (MB)
	Size of irrep 6 of <ia|bc> integrals:      0.003 (MW) /      0.022 (MB)
	Size of irrep 7 of <ia|bc> integrals:      0.004 (MW) /      0.030 (MB)
	Total:                                     0.021 (MW) /      0.164 (MB)

	Size of irrep 0 of <Ia|Bc> integrals:      0.009 (MW) /      0.070 (MB)
	Size of irrep 1 of <Ia|Bc> integrals:      0.004 (MW) /      0.033 (MB)
	Size of irrep 2 of <Ia|Bc> integrals:      0.004 (MW) /      0.033 (MB)
	Size of irrep 3 of <Ia|Bc> integrals:      0.004 (MW) /      0.036 (MB)
	Size of irrep 4 of <Ia|Bc> integrals:      0.002 (MW) /      0.015 (MB)
	Size of irrep 5 of <Ia|Bc> integrals:      0.005 (MW) /      0.043 (MB)
	Size of irrep 6 of <Ia|Bc> integrals:      0.005 (MW) /      0.043 (MB)
	Size of irrep 7 of <Ia|Bc> integrals:      0.005 (MW) /      0.040 (MB)
	Total:                                     0.039 (MW) /      0.313 (MB)

	Size of irrep 0 of <iA|bC> integrals:      0.004 (MW) /      0.035 (MB)
	Size of irrep 1 of <iA|bC> integrals:      0.002 (MW) /      0.017 (MB)
	Size of irrep 2 of <iA|bC> integrals:      0.002 (MW) /      0.017 (MB)
	Size of irrep 3 of <iA|bC> integrals:      0.001 (MW) /      0.008 (MB)
	Size of irrep 4 of <iA|bC> integrals:      0.001 (MW) /      0.007 (MB)
	Size of irrep 5 of <iA|bC> integrals:      0.002 (MW) /      0.019 (MB)
	Size of irrep 6 of <iA|bC> integrals:      0.002 (MW) /      0.019 (MB)
	Size of irrep 7 of <iA|bC> integrals:      0.004 (MW) /      0.029 (MB)
	Total:                                     0.019 (MW) /      0.150 (MB)

	Size of irrep 0 of tIjAb amplitudes:       0.001 (MW) /      0.004 (MB)
	Size of irrep 1 of tIjAb amplitudes:       0.000 (MW) /      0.002 (MB)
	Size of irrep 2 of tIjAb amplitudes:       0.000 (MW) /      0.002 (MB)
	Size of irrep 3 of tIjAb amplitudes:       0.000 (MW) /      0.000 (MB)
	Size of irrep 4 of tIjAb amplitudes:       0.000 (MW) /      0.000 (MB)
	Size of irrep 5 of tIjAb amplitudes:       0.000 (MW) /      0.002 (MB)
	Size of irrep 6 of tIjAb amplitudes:       0.000 (MW) /      0.002 (MB)
	Size of irrep 7 of tIjAb amplitudes:       0.000 (MW) /      0.004 (MB)
	Total:                                     0.002 (MW) /      0.015 (MB)

	Nuclear Rep. energy          =      0.00000000000000
	SCF energy                   =    -74.81298220662146
	One-electron energy          =    -26.36259003583738
	Two-electron (AA) energy     =      3.98651763223204
	Two-electron (BB) energy     =      0.58767862051716
	Two-electron (AB) energy     =      6.08086598380142
	Two-electron energy          =     10.65506223655062
	Reference energy             =    -74.81298220662144

*** tstop() called on cqc05 at Thu Aug 20 20:11:14 2020
Module time:
	user time   =       0.10 seconds =       0.00 minutes
	system time =       0.06 seconds =       0.00 minutes
	total time  =          0 seconds =       0.00 minutes
Total time:
	user time   =       0.50 seconds =       0.01 minutes
	system time =       0.08 seconds =       0.00 minutes
	total time  =          0 seconds =       0.00 minutes

*** tstart() called on cqc05
*** at Thu Aug 20 20:11:14 2020

            **************************
            *                        *
            *        CCENERGY        *
            *                        *
            **************************

    Nuclear Rep. energy (wfn)     =    0.000000000000000
    SCF energy          (wfn)     =  -74.812982206621456
    Reference energy    (file100) =  -74.812982206621442

    Input parameters:
    -----------------
    Wave function   =     CCSD
    Reference wfn   =     UHF
    Brueckner       =     No
    Memory (Mbytes) =     250000.0
    Maxiter         =     50
    R_Convergence   =     1.0e-07
    E_Convergence   =     1.0e-06
    Restart         =     Yes
    DIIS            =     Yes
    AO Basis        =     NONE
    ABCD            =     NEW
    Cache Level     =     2
    Cache Type      =     LRU
    Print Level     =     1
    Num. of threads =     4
    # Amps to Print =     10
    Print MP2 Amps? =     No
    Analyze T2 Amps =     No
    Print Pair Ener =     No
    Local CC        =     No
    SCS-MP2         =     False
    SCSN-MP2        =     False
    SCS-CCSD        =     False

MP2 correlation energy -0.1463119202047862
                Solving CC Amplitude Equations
                ------------------------------
  Iter             Energy              RMS        T1Diag      D1Diag    New D1Diag    D2Diag
  ----     ---------------------    ---------   ----------  ----------  ----------   --------
     0        -0.146311920204786    0.000e+00    0.000000    0.000000    0.000000    0.000000
     1        -0.158667896196641    2.970e-02    0.007132    0.000000    0.000000    0.000000
     2        -0.162169976849444    1.041e-02    0.009575    0.000000    0.000000    0.000000
     3        -0.162549846451396    3.975e-03    0.010705    0.000000    0.000000    0.000000
     4        -0.162506776074967    1.771e-03    0.010957    0.000000    0.000000    0.000000
     5        -0.162533642335395    7.013e-04    0.010973    0.000000    0.000000    0.000000
     6        -0.162541147182514    2.050e-04    0.010958    0.000000    0.000000    0.000000
     7        -0.162540353830079    6.607e-05    0.010952    0.000000    0.000000    0.000000
     8        -0.162540233796715    1.908e-05    0.010955    0.000000    0.000000    0.000000
     9        -0.162540090663326    4.882e-06    0.010955    0.000000    0.000000    0.000000
    10        -0.162540096759180    1.090e-06    0.010956    0.000000    0.000000    0.000000
    11        -0.162540088401670    2.828e-07    0.010956    0.000000    0.000000    0.000000
    12        -0.162540087453981    8.387e-08    0.010956    0.000000    0.000000    0.000000
    12        -0.162540087453981    8.387e-08    0.010956    0.000000    0.000000    0.000000

    Iterations converged.

    CCSD corr. energy   =   -0.162540087453981
    PPL corr. energy    =    0.030341143120518
    OS PPL corr. energy =    0.025136150653031
    SS PPL corr. energy =    0.005204992467487
    Largest TIA Amplitudes:
              3  34        -0.0111218461
              1  20        -0.0098048107
              2  27        -0.0098048107
              0   0         0.0066167571
              3  35        -0.0057389356
              1  21        -0.0056827590
              2  28        -0.0056827590
              0   2         0.0031841007
              0   3        -0.0029543250
              3  38         0.0029002973

    Largest Tia Amplitudes:
              1  36        -0.0078000707
              0   4        -0.0073753681
              0   1         0.0066261033
              1  40         0.0050459335
              0   3        -0.0042199255
              0   8         0.0019821988
              0   6        -0.0018936651
              1  39         0.0015583906
              1  42         0.0008489644
              0   0         0.0007325822

    Largest TIJAB Amplitudes:
      3   2  35  28        -0.0240544918
      3   1  35  21        -0.0240544918
      2   1  28  21        -0.0237050340
      2   1  16   4        -0.0168180464
      3   2  10   5        -0.0152621255
      3   1  13   5        -0.0152621255
      3   0  35   3        -0.0133725524
      1   0  21   3        -0.0131376745
      2   0  28   3        -0.0131376745
      3   2  34  28        -0.0128612046

    Largest Tijab Amplitudes:
      1   0  37   3         0.0125004467
      1   0  20  12        -0.0108911005
      1   0  28   9        -0.0108911005

      * MP2 total energy                      =  -74.959294126826222
      * CCSD total energy                     =  -74.975522294075418
*** Psi4 exiting successfully. Buy a developer a beer!
