                               Psi4 1.2a1.dev938

  ==> Input File <==

--------------------------------------------------------------------------
# Any line starting with the # character is a comment line
memory 250000 mb
molecule molecule{
0 2
Cl         0.0000000000        0.0000000000       -0.4834702805
O          0.0000000000        0.0000000000        1.0713196655
}

set {
  reference uhf
  basis aug-cc-pv(5+d)z
  scf_type OUT_OF_CORE
  freeze_core true
}

energy('ccsd')
--------------------------------------------------------------------------

    Molecular point group: c2v

    Geometry (in Angstrom), charge = 0, multiplicity = 2:

       Center              X                  Y                   Z               Mass
    ------------   -----------------  -----------------  -----------------  -----------------
          CL          0.000000000000     0.000000000000    -0.487968879743    34.968852682000
           O          0.000000000000     0.000000000000     1.066821066257    15.994914619560

  Charge       = 0
  Multiplicity = 2
  Basis Set: AUG-CC-PV(5+D)Z
    Blend: AUG-CC-PV(5+D)Z

    Orbital Energies (a.u.)
    -----------------------

    Alpha Occupied:

       1A1  -104.918507     2A1   -20.694099     3A1   -10.639133
       1B1    -8.107963     4A1    -8.104492     1B2    -8.103157
       5A1    -1.489929     6A1    -1.063214     2B1    -0.743328
       2B2    -0.673106     7A1    -0.672317     3B1    -0.489261
       3B2    -0.454508

    Alpha Virtual:

       8A1     0.053451     9A1     0.068054     4B1     0.081047
       4B2     0.083122    10A1     0.126948     5B1     0.130891
       5B2     0.134078    11A1     0.144733     1A2     0.227450
      12A1     0.227466    13A1     0.242342     6B1     0.277751
       6B2     0.282318    14A1     0.308687     7B1     0.354383
       7B2     0.359449    15A1     0.401711    16A1     0.444469
       2A2     0.447514    17A1     0.450811     8B1     0.487912
       8B2     0.498483     9B1     0.548523     9B2     0.565051
      18A1     0.570595     3A2     0.570719    19A1     0.594812
      10B1     0.606151    10B2     0.606157    20A1     0.637816
      11B1     0.656478    11B2     0.663367    21A1     0.708806
       4A2     0.708866    22A1     0.722135    12B1     0.845873
      12B2     0.853159    23A1     0.940937    13B1     1.033789
      13B2     1.033793    24A1     1.097759    25A1     1.157859
       5A2     1.158125    14B1     1.175207    14B2     1.185648
      26A1     1.244415     6A2     1.264918    27A1     1.264999
      15B1     1.313670    28A1     1.327300    15B2     1.328158
       7A2     1.330973    29A1     1.330980     8A2     1.392430
      30A1     1.392676    16B1     1.441113    16B2     1.449819
      17B1     1.465580    17B2     1.465755    31A1     1.467175
      18B1     1.513636    18B2     1.513775    19B1     1.523810
      19B2     1.555426     9A2     1.577147    32A1     1.577171
      33A1     1.628783    20B1     1.670437    20B2     1.684123
      34A1     1.761470    21B1     1.761967    21B2     1.774035
      10A2     1.864368    35A1     1.865050    36A1     1.971556
      37A1     2.385600    22B1     2.387597    22B2     2.415202
      38A1     2.613450    11A2     2.613450    39A1     2.648861
      23B1     2.788111    23B2     2.788138    40A1     2.862364
      12A2     2.862481    24B1     2.940842    24B2     2.940858
      41A1     2.955932    13A2     2.956682    25B1     2.983481
      25B2     3.004576    42A1     3.033893    26B1     3.109844
      26B2     3.126253    43A1     3.157647    27B1     3.208530
      27B2     3.223911    28B1     3.223939    28B2     3.228394
      44A1     3.263218    14A2     3.273148    45A1     3.273149
      15A2     3.320954    46A1     3.320992    16A2     3.345792
      47A1     3.346161    29B1     3.379410    29B2     3.379428
      30B1     3.406105    30B2     3.406105    48A1     3.501374
      17A2     3.501374    31B1     3.550706    49A1     3.558348
      31B2     3.572147    18A2     3.594568    50A1     3.596625
      32B1     3.655336    32B2     3.670780    51A1     3.713277
      19A2     3.797265    52A1     3.797805    33B1     3.959458
      33B2     3.959463    34B1     4.129120    34B2     4.149408
      53A1     4.221338    54A1     4.513068    55A1     4.524335
      20A2     4.696086    56A1     4.696947    35B1     4.757006
      35B2     4.774912    36B1     5.241475    36B2     5.268190
      37B1     5.360154    37B2     5.413981    57A1     5.860875
      38B1     6.157629    38B2     6.157629    58A1     6.282107
      21A2     6.282107    59A1     6.400152    39B1     6.495657
      39B2     6.495675    60A1     6.518682    22A2     6.518869
      40B1     6.595412    40B2     6.614436    41B1     6.718649
      41B2     6.718685    61A1     6.789630    23A2     6.790795
      62A1     6.819511    63A1     6.924611    42B1     6.950846
      42B2     6.965336    64A1     7.048240    24A2     7.048240
      43B1     7.233487    43B2     7.234592    65A1     7.249783
      25A2     7.249790    44B1     7.268573    44B2     7.292051
      66A1     7.324658    26A2     7.327055    45B1     7.360377
      45B2     7.360388    67A1     7.405343    27A2     7.405343
      68A1     7.422789    69A1     7.501258    46B1     7.505710
      46B2     7.516007    47B1     7.521428    47B2     7.534895
      70A1     7.595464    28A2     7.673908    71A1     7.674236
      48B1     7.685889    48B2     7.685889    29A2     7.718653
      72A1     7.718653    49B1     7.962416    49B2     7.962419
      50B1     8.080971    73A1     8.108456    50B2     8.108999
      30A2     8.224283    74A1     8.225173    31A2     8.447296
      75A1     8.448006    76A1     8.632199    51B1     8.692712
      51B2     8.718937    32A2     8.894306    77A1     8.894710
      52B1     9.098859    52B2     9.131817    78A1    10.020204
      53B1    10.286819    53B2    10.320344    79A1    10.476326
      80A1    12.363022    54B1    16.000409    54B2    16.062784
      55B1    16.178704    55B2    16.178704    81A1    16.224963
      33A2    16.224964    56B1    16.452147    56B2    16.452289
      82A1    16.716190    57B1    16.748378    34A2    16.752964
      83A1    16.777477    57B2    16.793025    84A1    17.354402
      85A1    19.034019    35A2    19.034029    58B1    19.105623
      58B2    19.105786    59B1    19.166369    59B2    19.166400
      86A1    19.268409    36A2    19.274293    60B1    19.425759
      60B2    19.478830    87A1    19.480436    88A1    19.489707
      37A2    19.489884    61B1    19.938475    61B2    19.990944
      89A1    20.340054    38A2    20.539015    90A1    20.539058
      62B1    21.018182    62B2    21.025376    91A1    21.266301
      92A1    22.115444    39A2    22.115648    63B1    22.689784
      63B2    22.740552    93A1    23.295297    64B1    38.476357
      64B2    38.480746    94A1    40.125904    95A1    62.730704
      96A1    84.484633

    Beta Occupied:

       1A1  -104.917144     2A1   -20.654393     3A1   -10.637839
       4A1    -8.107236     1B2    -8.102508     1B1    -8.099072
       5A1    -1.384055     6A1    -1.003005     2B2    -0.645283
       7A1    -0.634403     2B1    -0.527206     3B2    -0.436123

    Beta Virtual:

       3B1     0.045354     8A1     0.054932     9A1     0.069731
       4B1     0.081802     4B2     0.083084    10A1     0.128007
       5B2     0.134611     5B1     0.147614    11A1     0.153540
       1A2     0.228692    12A1     0.228734    13A1     0.246635
       6B2     0.282470     6B1     0.292035    14A1     0.312941
       7B1     0.357017     7B2     0.358919    15A1     0.403924
      16A1     0.446762     2A2     0.449803    17A1     0.451277
       8B2     0.499175     8B1     0.507648     9B2     0.567648
      18A1     0.579626     3A2     0.579784    19A1     0.602226
       9B1     0.606195    10B2     0.606635    10B1     0.615210
      20A1     0.638157    11B1     0.659856    11B2     0.662089
       4A2     0.708879    21A1     0.708913    22A1     0.728601
      12B2     0.851698    12B1     0.854124    23A1     0.946406
      13B2     1.035551    13B1     1.035553    24A1     1.109791
       5A2     1.174870    25A1     1.175073    14B1     1.182987
      14B2     1.185368    26A1     1.248349     6A2     1.276297
      27A1     1.276666    15B2     1.329493    28A1     1.331634
       7A2     1.331635    29A1     1.333709    15B1     1.336008
       8A2     1.397536    30A1     1.397600    16B1     1.444874
      16B2     1.448478    17B1     1.465660    17B2     1.465729
      31A1     1.472835    18B2     1.517717    18B1     1.517735
      19B2     1.564611     9A2     1.578854    32A1     1.578864
      19B1     1.594134    33A1     1.629277    20B2     1.685182
      20B1     1.691874    34A1     1.767047    21B1     1.771180
      21B2     1.774060    10A2     1.878067    35A1     1.878247
      36A1     1.977077    37A1     2.397040    22B2     2.420922
      22B1     2.428710    11A2     2.617572    38A1     2.617573
      39A1     2.659763    23B2     2.799067    23B1     2.799073
      12A2     2.878097    40A1     2.878288    24B1     2.950072
      24B2     2.950075    41A1     2.967835    13A2     2.967855
      25B1     2.999786    25B2     3.005878    42A1     3.048409
      26B1     3.118019    26B2     3.126630    43A1     3.161987
      27B1     3.228491    27B2     3.229007    28B1     3.229141
      28B2     3.230912    44A1     3.273538    14A2     3.276558
      45A1     3.276560    15A2     3.330549    46A1     3.330646
      16A2     3.352645    47A1     3.352806    29B2     3.383944
      29B1     3.383945    30B2     3.407864    30B1     3.407864
      17A2     3.503004    48A1     3.503004    49A1     3.566654
      31B1     3.574637    31B2     3.575337    18A2     3.636291
      50A1     3.636532    32B1     3.669019    32B2     3.672160
      51A1     3.722023    19A2     3.801685    52A1     3.801983
      33B1     3.961915    33B2     3.961916    34B2     4.152993
      34B1     4.154401    53A1     4.234719    54A1     4.519294
      55A1     4.535076    20A2     4.701235    56A1     4.701592
      35B1     4.773148    35B2     4.777145    36B1     5.267730
      36B2     5.272189    37B2     5.428365    37B1     5.431191
      57A1     5.874095    38B1     6.166707    38B2     6.166707
      58A1     6.289089    21A2     6.289089    59A1     6.412239
      39B1     6.501589    39B2     6.501595    60A1     6.524460
      22A2     6.524536    40B1     6.605366    40B2     6.615825
      41B1     6.725205    41B2     6.725220    61A1     6.796268
      23A2     6.796720    62A1     6.824734    63A1     6.932904
      42B1     6.957156    42B2     6.965387    64A1     7.069687
      24A2     7.069687    43B1     7.248999    43B2     7.249400
      65A1     7.254782    25A2     7.254826    44B1     7.279328
      44B2     7.293218    66A1     7.337506    26A2     7.338527
      45B1     7.380106    45B2     7.380108    67A1     7.409996
      27A2     7.409996    68A1     7.425330    69A1     7.505371
      46B1     7.522039    46B2     7.534176    47B1     7.543628
      47B2     7.544120    70A1     7.605237    28A2     7.679011
      71A1     7.679239    48B1     7.689787    48B2     7.689787
      29A2     7.721393    72A1     7.721394    49B1     7.965792
      49B2     7.965792    50B1     8.106841    50B2     8.114192
      73A1     8.117114    30A2     8.251995    74A1     8.252169
      31A2     8.491232    75A1     8.491458    76A1     8.648164
      51B1     8.713649    51B2     8.723866    32A2     8.913934
      77A1     8.914030    52B1     9.122024    52B2     9.136822
      78A1    10.028093    53B1    10.314855    53B2    10.327296
      79A1    10.489964    80A1    12.395767    54B1    16.071734
      54B2    16.079042    55B1    16.202077    55B2    16.202077
      81A1    16.244445    33A2    16.244445    56B1    16.468678
      56B2    16.468730    82A1    16.736755    34A2    16.766369
      57B1    16.766678    83A1    16.781955    57B2    16.798267
      84A1    17.375478    85A1    19.070819    35A2    19.070821
      58B1    19.140282    58B2    19.140320    59B1    19.208474
      59B2    19.208479    86A1    19.295924    36A2    19.298202
      60B1    19.459034    60B2    19.489714    87A1    19.496722
      88A1    19.523492    37A2    19.523605    61B1    19.974446
      61B2    20.001571    89A1    20.359161    38A2    20.542328
      90A1    20.542342    62B1    21.021684    62B2    21.025309
      91A1    21.268549    92A1    22.161632    39A2    22.161633
      63B1    22.734494    63B2    22.753190    93A1    23.314660
      64B2    38.481214    64B1    38.482765    94A1    40.124235
      95A1    62.746500    96A1    84.485611

    Final Occupation by Irrep:
             A1    A2    B1    B2
    DOCC [     7,    0,    2,    3 ]
    SOCC [     0,    0,    1,    0 ]

  Energy converged.

  @UHF Final Energy:  -534.31837954766718

   => Energetics <=

    Nuclear Repulsion Energy =             46.2879892897377871
    One-Electron Energy =                -829.9114555129685868
    Two-Electron Energy =                 249.3050866755636719
    PCM Polarization Energy =               0.0000000000000000
    Total Energy =                       -534.3183795476671776

    Alert: EFP and PCM quantities not currently incorporated into SCF psivars.
  UHF NO Occupations:
  HONO-2 :    7 A1 1.9973657
  HONO-1 :    2 B1 1.9945909
  HONO-0 :    3 B1 1.0000000
  LUNO+0 :    4 B1 0.0054091
  LUNO+1 :    8 A1 0.0026343
  LUNO+2 :    9 A1 0.0013152
  LUNO+3 :    4 B2 0.0004767

Properties will be evaluated at   0.000000,   0.000000,   0.000000 Bohr

Properties computed using the SCF density matrix

  Nuclear Dipole Moment: (a.u.)
     X:     0.0000      Y:     0.0000      Z:     0.4518

  Electronic Dipole Moment: (a.u.)
     X:     0.0000      Y:     0.0000      Z:    -0.7768

  Dipole Moment: (a.u.)
     X:     0.0000      Y:     0.0000      Z:    -0.3249     Total:     0.3249

  Dipole Moment: (Debye)
     X:     0.0000      Y:     0.0000      Z:    -0.8259     Total:     0.8259

*** tstop() called on cqc05 at Fri Aug 21 02:37:58 2020
Module time:
	user time   =     154.29 seconds =       2.57 minutes
	system time =       9.06 seconds =       0.15 minutes
	total time  =        162 seconds =       2.70 minutes
Total time:
	user time   =     154.29 seconds =       2.57 minutes
	system time =       9.06 seconds =       0.15 minutes
	total time  =        162 seconds =       2.70 minutes

*** tstart() called on cqc05
*** at Fri Aug 21 02:37:58 2020

	Wfn Parameters:
	--------------------
	Wavefunction         = CCSD
	Number of irreps     = 4
	Number of MOs        = 263
	Number of active MOs = 257
	AO-Basis             = NONE
	Semicanonical        = false
	Reference            = UHF
	Print Level          = 1

	IRREP	# MOs	# FZDC	# DOCC	# SOCC	# VIRT	# FZVR
	-----	-----	------	------	------	------	------
	 A1	   96	    4	    3	    0	    89	    0
	 A2	   39	    0	    0	    0	    39	    0
	 B1	   64	    1	    1	    1	    61	    0
	 B2	   64	    1	    2	    0	    61	    0
	Transforming integrals...
	IWL integrals will be deleted.
	(OO|OO)...
	Presorting SO-basis two-electron integrals.
	Sorting File: SO Ints (nn|nn) nbuckets = 1
	Transforming the one-electron integrals and constructing Fock matrices
	Starting AA/AB first half-transformation.
	Sorting AA/AB half-transformed integrals.
	Starting BB first half-transformation.
	Sorting BB half-transformed integrals.
	First half integral transformation complete.
	Starting AA second half-transformation.
	Starting AB second half-transformation.
	Starting BB second half-transformation.
	Two-electron integral transformation complete.
	(OO|OV)...
	Starting AA second half-transformation.
	Starting AB second half-transformation.
	Starting BB second half-transformation.
	Two-electron integral transformation complete.
	(OO|VV)...
	Starting AA second half-transformation.
	Starting AB second half-transformation.
	Starting BB second half-transformation.
	Two-electron integral transformation complete.
	(OV|OO)...
	Starting AA/AB first half-transformation.
	Sorting AA/AB half-transformed integrals.
	Starting BB first half-transformation.
	Sorting BB half-transformed integrals.
	First half integral transformation complete.
	Starting AA second half-transformation.
	Starting AB second half-transformation.
	Starting BB second half-transformation.
	Two-electron integral transformation complete.
	(OV|OV)...
	Starting AA second half-transformation.
	Starting AB second half-transformation.
	Starting BB second half-transformation.
	Two-electron integral transformation complete.
	(OV|VV)...
	Starting AA second half-transformation.
	Starting AB second half-transformation.
	Starting BB second half-transformation.
	Two-electron integral transformation complete.
	(VV|OO)...
	Starting AA/AB first half-transformation.
	Sorting AA/AB half-transformed integrals.
	Starting BB first half-transformation.
	Sorting BB half-transformed integrals.
	First half integral transformation complete.
	Starting AA second half-transformation.
	Starting AB second half-transformation.
	Starting BB second half-transformation.
	Two-electron integral transformation complete.
	(VV|OV)...
	Starting AA second half-transformation.
	Starting AB second half-transformation.
	Starting BB second half-transformation.
	Two-electron integral transformation complete.
	(VV|VV)...
	Starting AA second half-transformation.
	Starting AB second half-transformation.
	Starting BB second half-transformation.
	Two-electron integral transformation complete.
	Frozen core energy     =   -535.85067462057555

	Size of irrep 0 of <AB|CD> integrals:     69.172 (MW) /    553.380 (MB)
	Size of irrep 1 of <AB|CD> integrals:     51.725 (MW) /    413.799 (MB)
	Size of irrep 2 of <AB|CD> integrals:     60.965 (MW) /    487.719 (MB)
	Size of irrep 3 of <AB|CD> integrals:     60.965 (MW) /    487.719 (MB)
	Total:                                   242.827 (MW) /   1942.617 (MB)

	Size of irrep 0 of <ab|cd> integrals:     70.191 (MW) /    561.527 (MB)
	Size of irrep 1 of <ab|cd> integrals:     52.606 (MW) /    420.848 (MB)
	Size of irrep 2 of <ab|cd> integrals:     62.363 (MW) /    498.901 (MB)
	Size of irrep 3 of <ab|cd> integrals:     61.575 (MW) /    492.603 (MB)
	Total:                                   246.735 (MW) /   1973.879 (MB)

	Size of irrep 0 of <Ab|Cd> integrals:    287.133 (MW) /   2297.064 (MB)
	Size of irrep 1 of <Ab|Cd> integrals:    208.658 (MW) /   1669.264 (MB)
	Size of irrep 2 of <Ab|Cd> integrals:    246.647 (MW) /   1973.176 (MB)
	Size of irrep 3 of <Ab|Cd> integrals:    245.079 (MW) /   1960.632 (MB)
	Total:                                   987.517 (MW) /   7900.137 (MB)

	Size of irrep 0 of <IA|BC> integrals:      8.628 (MW) /     69.022 (MB)
	Size of irrep 1 of <IA|BC> integrals:      5.193 (MW) /     41.541 (MB)
	Size of irrep 2 of <IA|BC> integrals:      6.855 (MW) /     54.843 (MB)
	Size of irrep 3 of <IA|BC> integrals:      6.855 (MW) /     54.843 (MB)
	Total:                                    27.531 (MW) /    220.250 (MB)

	Size of irrep 0 of <ia|bc> integrals:      7.670 (MW) /     61.361 (MB)
	Size of irrep 1 of <ia|bc> integrals:      4.381 (MW) /     35.046 (MB)
	Size of irrep 2 of <ia|bc> integrals:      5.575 (MW) /     44.602 (MB)
	Size of irrep 3 of <ia|bc> integrals:      6.278 (MW) /     50.221 (MB)
	Total:                                    23.904 (MW) /    191.231 (MB)

	Size of irrep 0 of <Ia|Bc> integrals:      8.693 (MW) /     69.542 (MB)
	Size of irrep 1 of <Ia|Bc> integrals:      5.244 (MW) /     41.948 (MB)
	Size of irrep 2 of <Ia|Bc> integrals:      6.942 (MW) /     55.533 (MB)
	Size of irrep 3 of <Ia|Bc> integrals:      6.873 (MW) /     54.980 (MB)
	Total:                                    27.750 (MW) /    222.004 (MB)

	Size of irrep 0 of <iA|bC> integrals:      7.625 (MW) /     61.002 (MB)
	Size of irrep 1 of <iA|bC> integrals:      4.333 (MW) /     34.668 (MB)
	Size of irrep 2 of <iA|bC> integrals:      5.497 (MW) /     43.974 (MB)
	Size of irrep 3 of <iA|bC> integrals:      6.262 (MW) /     50.096 (MB)
	Total:                                    23.718 (MW) /    189.740 (MB)

	Size of irrep 0 of tIjAb amplitudes:       0.254 (MW) /      2.033 (MB)
	Size of irrep 1 of tIjAb amplitudes:       0.087 (MW) /      0.693 (MB)
	Size of irrep 2 of tIjAb amplitudes:       0.141 (MW) /      1.131 (MB)
	Size of irrep 3 of tIjAb amplitudes:       0.188 (MW) /      1.503 (MB)
	Total:                                     0.670 (MW) /      5.360 (MB)

	Nuclear Rep. energy          =     46.28798928973779
	SCF energy                   =   -534.31837954766718
	One-electron energy          =    -79.29565008245686
	Two-electron (AA) energy     =      8.66471751164855
	Two-electron (BB) energy     =      5.89950481515377
	Two-electron (AB) energy     =     19.97573353882883
	Two-electron energy          =     34.53995586563115
	Reference energy             =   -534.31837954766343

*** tstop() called on cqc05 at Fri Aug 21 02:42:51 2020
Module time:
	user time   =     119.50 seconds =       1.99 minutes
	system time =      58.75 seconds =       0.98 minutes
	total time  =        293 seconds =       4.88 minutes
Total time:
	user time   =     273.79 seconds =       4.56 minutes

      * MP2 total energy                      = -534.758598584323977
      * CCSD total energy                     = -534.781579010417204
*** Psi4 exiting successfully. Buy a developer a beer!
