                               Psi4 1.2a1.dev938

  ==> Input File <==

--------------------------------------------------------------------------
# Any line starting with the # character is a comment line
memory 250000 mb
molecule molecule{
0 2
Cl         0.0000000000        0.0000000000       -0.4834702805
O          0.0000000000        0.0000000000        1.0713196655
}

set {
  reference uhf
  basis aug-cc-pv(d+d)z
  scf_type OUT_OF_CORE
  freeze_core true
}

energy('ccsd')
--------------------------------------------------------------------------

    Molecular point group: c2v

    Geometry (in Angstrom), charge = 0, multiplicity = 2:

       Center              X                  Y                   Z               Mass
    ------------   -----------------  -----------------  -----------------  -----------------
          CL          0.000000000000     0.000000000000    -0.487968879743    34.968852682000
           O          0.000000000000     0.000000000000     1.066821066257    15.994914619560

  Charge       = 0
  Multiplicity = 2
  Basis Set: AUG-CC-PV(D+D)Z
    Blend: AUG-CC-PV(D+D)Z

    Orbital Energies (a.u.)
    -----------------------

    Alpha Occupied:

       1A1  -104.919953     2A1   -20.707925     3A1   -10.642146
       1B1    -8.109440     4A1    -8.108775     1B2    -8.104463
       5A1    -1.497435     6A1    -1.066834     2B1    -0.744058
       7A1    -0.674653     2B2    -0.674314     3B1    -0.489569
       3B2    -0.455600

    Alpha Virtual:

       8A1     0.070617     9A1     0.124393     4B1     0.126939
       4B2     0.130544    10A1     0.191770    11A1     0.217996
       5B1     0.226151     5B2     0.236041    12A1     0.395774
       1A2     0.423354    13A1     0.423453     6B1     0.506473
       6B2     0.520364    14A1     0.697240    15A1     0.857057
       7B1     0.859244     7B2     0.870295    16A1     0.986550
       2A2     0.986650    17A1     1.068272     8B1     1.098588
       8B2     1.119520    18A1     1.242617     3A2     1.242866
       9B1     1.272625     9B2     1.299395    19A1     1.331158
      20A1     1.444956    10B1     1.475084    10B2     1.514547
      21A1     1.728404    22A1     2.828300    23A1     3.461023
       4A2     3.468035    11B1     3.557238    24A1     3.596001
      11B2     3.610654    25A1     5.903649     5A2     5.903717
      12B1     5.926593    12B2     5.933420    26A1     6.071736

    Beta Occupied:

       1A1  -104.918721     2A1   -20.667136     3A1   -10.640885
       4A1    -8.111442     1B2    -8.103843     1B1    -8.101012
       5A1    -1.391660     6A1    -1.007198     2B2    -0.645272
       7A1    -0.636409     2B1    -0.529870     3B2    -0.436458

    Beta Virtual:

       3B1     0.043974     8A1     0.075832     9A1     0.125950
       4B1     0.128693     4B2     0.130484    10A1     0.203081
      11A1     0.221475     5B2     0.238512     5B1     0.269076
      12A1     0.402394     1A2     0.429926    13A1     0.430254
       6B2     0.518228     6B1     0.544187    14A1     0.708446
      15A1     0.861463     7B2     0.871097     7B1     0.873848
       2A2     1.016911    16A1     1.017477    17A1     1.073326
       8B2     1.120929     8B1     1.129284     3A2     1.251534
      18A1     1.251556     9B2     1.305188     9B1     1.331846
      19A1     1.341707    20A1     1.456170    10B2     1.527051
      10B1     1.580170    21A1     1.750837    22A1     2.856758
      23A1     3.559549     4A2     3.560732    11B2     3.630005
      24A1     3.635113    11B1     3.647999    25A1     5.905576
       5A2     5.905607    12B1     5.928446    12B2     5.932949
      26A1     6.072530

    Final Occupation by Irrep:
             A1    A2    B1    B2
    DOCC [     7,    0,    2,    3 ]
    SOCC [     0,    0,    1,    0 ]

  Energy converged.

  @UHF Final Energy:  -534.27211354849851

   => Energetics <=

    Nuclear Repulsion Energy =             46.2879892897377871
    One-Electron Energy =                -829.7351328296357451
    Two-Electron Energy =                 249.1750299913994979
    PCM Polarization Energy =               0.0000000000000000
    Total Energy =                       -534.2721135484985098

    Alert: EFP and PCM quantities not currently incorporated into SCF psivars.
  UHF NO Occupations:
  HONO-2 :    7 A1 1.9975153
  HONO-1 :    2 B1 1.9951405
  HONO-0 :    3 B1 1.0000000
  LUNO+0 :    4 B1 0.0048595
  LUNO+1 :    8 A1 0.0024847
  LUNO+2 :    9 A1 0.0011956
  LUNO+3 :    4 B2 0.0004142

Properties will be evaluated at   0.000000,   0.000000,   0.000000 Bohr

Properties computed using the SCF density matrix

  Nuclear Dipole Moment: (a.u.)
     X:     0.0000      Y:     0.0000      Z:     0.4518

  Electronic Dipole Moment: (a.u.)
     X:     0.0000      Y:     0.0000      Z:    -0.7812

  Dipole Moment: (a.u.)
     X:     0.0000      Y:     0.0000      Z:    -0.3294     Total:     0.3294

  Dipole Moment: (Debye)
     X:     0.0000      Y:     0.0000      Z:    -0.8372     Total:     0.8372

*** tstop() called on cqc05 at Thu Aug 20 19:54:06 2020
Module time:
	user time   =       1.37 seconds =       0.02 minutes
	system time =       0.02 seconds =       0.00 minutes
	total time  =          0 seconds =       0.00 minutes
Total time:
	user time   =       1.37 seconds =       0.02 minutes
	system time =       0.02 seconds =       0.00 minutes
	total time  =          0 seconds =       0.00 minutes

*** tstart() called on cqc05
*** at Thu Aug 20 19:54:06 2020

	Wfn Parameters:
	--------------------
	Wavefunction         = CCSD
	Number of irreps     = 4
	Number of MOs        = 55
	Number of active MOs = 49
	AO-Basis             = NONE
	Semicanonical        = false
	Reference            = UHF
	Print Level          = 1

	IRREP	# MOs	# FZDC	# DOCC	# SOCC	# VIRT	# FZVR
	-----	-----	------	------	------	------	------
	 A1	   26	    4	    3	    0	    19	    0
	 A2	   5	    0	    0	    0	    5	    0
	 B1	   12	    1	    1	    1	    9	    0
	 B2	   12	    1	    2	    0	    9	    0
	Transforming integrals...
	IWL integrals will be deleted.
	(OO|OO)...
	Presorting SO-basis two-electron integrals.
	Sorting File: SO Ints (nn|nn) nbuckets = 1
	Transforming the one-electron integrals and constructing Fock matrices
	Starting AA/AB first half-transformation.
	Sorting AA/AB half-transformed integrals.
	Starting BB first half-transformation.
	Sorting BB half-transformed integrals.
	First half integral transformation complete.
	Starting AA second half-transformation.
	Starting AB second half-transformation.
	Starting BB second half-transformation.
	Two-electron integral transformation complete.
	(OO|OV)...
	Starting AA second half-transformation.
	Starting AB second half-transformation.
	Starting BB second half-transformation.
	Two-electron integral transformation complete.
	(OO|VV)...
	Starting AA second half-transformation.
	Starting AB second half-transformation.
	Starting BB second half-transformation.
	Two-electron integral transformation complete.
	(OV|OO)...
	Starting AA/AB first half-transformation.
	Sorting AA/AB half-transformed integrals.
	Starting BB first half-transformation.
	Sorting BB half-transformed integrals.
	First half integral transformation complete.
	Starting AA second half-transformation.
	Starting AB second half-transformation.
	Starting BB second half-transformation.
	Two-electron integral transformation complete.
	(OV|OV)...
	Starting AA second half-transformation.
	Starting AB second half-transformation.
	Starting BB second half-transformation.
	Two-electron integral transformation complete.
	(OV|VV)...
	Starting AA second half-transformation.
	Starting AB second half-transformation.
	Starting BB second half-transformation.
	Two-electron integral transformation complete.
	(VV|OO)...
	Starting AA/AB first half-transformation.
	Sorting AA/AB half-transformed integrals.
	Starting BB first half-transformation.
	Sorting BB half-transformed integrals.
	First half integral transformation complete.
	Starting AA second half-transformation.
	Starting AB second half-transformation.
	Starting BB second half-transformation.
	Two-electron integral transformation complete.
	(VV|OV)...
	Starting AA second half-transformation.
	Starting AB second half-transformation.
	Starting BB second half-transformation.
	Two-electron integral transformation complete.
	(VV|VV)...
	Starting AA second half-transformation.
	Starting AB second half-transformation.
	Starting BB second half-transformation.
	Two-electron integral transformation complete.
	Frozen core energy     =   -535.83783264358976

	Size of irrep 0 of <AB|CD> integrals:      0.064 (MW) /      0.512 (MB)
	Size of irrep 1 of <AB|CD> integrals:      0.031 (MW) /      0.248 (MB)
	Size of irrep 2 of <AB|CD> integrals:      0.047 (MW) /      0.373 (MB)
	Size of irrep 3 of <AB|CD> integrals:      0.047 (MW) /      0.373 (MB)
	Total:                                     0.188 (MW) /      1.506 (MB)

	Size of irrep 0 of <ab|cd> integrals:      0.069 (MW) /      0.549 (MB)
	Size of irrep 1 of <ab|cd> integrals:      0.034 (MW) /      0.274 (MB)
	Size of irrep 2 of <ab|cd> integrals:      0.055 (MW) /      0.442 (MB)
	Size of irrep 3 of <ab|cd> integrals:      0.049 (MW) /      0.391 (MB)
	Total:                                     0.207 (MW) /      1.655 (MB)

	Size of irrep 0 of <Ab|Cd> integrals:      0.310 (MW) /      2.482 (MB)
	Size of irrep 1 of <Ab|Cd> integrals:      0.130 (MW) /      1.043 (MB)
	Size of irrep 2 of <Ab|Cd> integrals:      0.203 (MW) /      1.627 (MB)
	Size of irrep 3 of <Ab|Cd> integrals:      0.191 (MW) /      1.528 (MB)
	Total:                                     0.835 (MW) /      6.680 (MB)

	Size of irrep 0 of <IA|BC> integrals:      0.051 (MW) /      0.408 (MB)
	Size of irrep 1 of <IA|BC> integrals:      0.018 (MW) /      0.144 (MB)
	Size of irrep 2 of <IA|BC> integrals:      0.032 (MW) /      0.259 (MB)
	Size of irrep 3 of <IA|BC> integrals:      0.032 (MW) /      0.259 (MB)
	Total:                                     0.134 (MW) /      1.070 (MB)

	Size of irrep 0 of <ia|bc> integrals:      0.048 (MW) /      0.386 (MB)
	Size of irrep 1 of <ia|bc> integrals:      0.016 (MW) /      0.130 (MB)
	Size of irrep 2 of <ia|bc> integrals:      0.028 (MW) /      0.222 (MB)
	Size of irrep 3 of <ia|bc> integrals:      0.031 (MW) /      0.248 (MB)
	Total:                                     0.123 (MW) /      0.985 (MB)

	Size of irrep 0 of <Ia|Bc> integrals:      0.053 (MW) /      0.423 (MB)
	Size of irrep 1 of <Ia|Bc> integrals:      0.019 (MW) /      0.153 (MB)
	Size of irrep 2 of <Ia|Bc> integrals:      0.035 (MW) /      0.281 (MB)
	Size of irrep 3 of <Ia|Bc> integrals:      0.033 (MW) /      0.262 (MB)
	Total:                                     0.140 (MW) /      1.120 (MB)

	Size of irrep 0 of <iA|bC> integrals:      0.047 (MW) /      0.374 (MB)
	Size of irrep 1 of <iA|bC> integrals:      0.015 (MW) /      0.121 (MB)
	Size of irrep 2 of <iA|bC> integrals:      0.025 (MW) /      0.202 (MB)
	Size of irrep 3 of <iA|bC> integrals:      0.031 (MW) /      0.245 (MB)
	Total:                                     0.118 (MW) /      0.942 (MB)

	Size of irrep 0 of tIjAb amplitudes:       0.008 (MW) /      0.067 (MB)
	Size of irrep 1 of tIjAb amplitudes:       0.002 (MW) /      0.017 (MB)
	Size of irrep 2 of tIjAb amplitudes:       0.004 (MW) /      0.032 (MB)
	Size of irrep 3 of tIjAb amplitudes:       0.005 (MW) /      0.042 (MB)
	Total:                                     0.020 (MW) /      0.159 (MB)

	Nuclear Rep. energy          =     46.28798928973779
	SCF energy                   =   -534.27211354849851
	One-electron energy          =    -79.19520930393870
	Two-electron (AA) energy     =      8.64821843491531
	Two-electron (BB) energy     =      5.88875390574670
	Two-electron (AB) energy     =     19.93596676862957
	Two-electron energy          =     34.47293910929159
	Reference energy             =   -534.27211354849908

*** tstop() called on cqc05 at Thu Aug 20 19:54:07 2020
Module time:
	user time   =       0.19 seconds =       0.00 minutes
	system time =       0.09 seconds =       0.00 minutes
	total time  =          1 seconds =       0.02 minutes
Total time:
	user time   =       1.56 seconds =       0.03 minutes
	system time =       0.11 seconds =       0.00 minutes
	total time  =          1 seconds =       0.02 minutes

*** tstart() called on cqc05
*** at Thu Aug 20 19:54:07 2020

            **************************
            *                        *
            *        CCENERGY        *
            *                        *
            **************************

    Nuclear Rep. energy (wfn)     =   46.287989289737787
    SCF energy          (wfn)     = -534.272113548498510
    Reference energy    (file100) = -534.272113548499078

    Input parameters:
    -----------------
    Wave function   =     CCSD
    Reference wfn   =     UHF
    Brueckner       =     No
    Memory (Mbytes) =     250000.0
    Maxiter         =     50
    R_Convergence   =     1.0e-07
    E_Convergence   =     1.0e-06
    Restart         =     Yes
    DIIS            =     Yes
    AO Basis        =     NONE
    ABCD            =     NEW
    Cache Level     =     2
    Cache Type      =     LRU
    Print Level     =     1
    Num. of threads =     4
    # Amps to Print =     10
    Print MP2 Amps? =     No
    Analyze T2 Amps =     No
    Print Pair Ener =     No
    Local CC        =     No
    SCS-MP2         =     False
    SCSN-MP2        =     False
    SCS-CCSD        =     False

MP2 correlation energy -0.3106067833758439
                Solving CC Amplitude Equations
                ------------------------------
  Iter             Energy              RMS        T1Diag      D1Diag    New D1Diag    D2Diag
  ----     ---------------------    ---------   ----------  ----------  ----------   --------
     0        -0.310606783375844    0.000e+00    0.000000    0.000000    0.000000    0.000000
     1        -0.323531261210560    9.088e-02    0.021864    0.000000    0.000000    0.000000
     2        -0.335106020387731    3.432e-02    0.028436    0.000000    0.000000    0.000000
     3        -0.339228127837809    2.876e-02    0.039819    0.000000    0.000000    0.000000
     4        -0.340207916983009    1.582e-02    0.052046    0.000000    0.000000    0.000000
     5        -0.340421676077189    4.810e-03    0.055379    0.000000    0.000000    0.000000
     6        -0.340469550817373    1.281e-03    0.055848    0.000000    0.000000    0.000000
     7        -0.340472893864223    4.975e-04    0.055907    0.000000    0.000000    0.000000
     8        -0.340471511127352    2.124e-04    0.055957    0.000000    0.000000    0.000000
     9        -0.340466901944299    8.491e-05    0.055956    0.000000    0.000000    0.000000
    10        -0.340466918819927    3.438e-05    0.055958    0.000000    0.000000    0.000000
    11        -0.340467838185049    1.330e-05    0.055963    0.000000    0.000000    0.000000
    12        -0.340468097787929    5.081e-06    0.055962    0.000000    0.000000    0.000000
    13        -0.340468178654160    1.763e-06    0.055962    0.000000    0.000000    0.000000
    14        -0.340468138661406    6.388e-07    0.055962    0.000000    0.000000    0.000000
    15        -0.340468134656483    2.392e-07    0.055962    0.000000    0.000000    0.000000
    16        -0.340468131295856    7.763e-08    0.055962    0.000000    0.000000    0.000000
    16        -0.340468131295856    7.763e-08    0.055962    0.000000    0.000000    0.000000

    Iterations converged.

    CCSD corr. energy   =   -0.340468131295856
    PPL corr. energy    =    0.071974949304429
    OS PPL corr. energy =    0.057194927172470
    SS PPL corr. energy =    0.014780022131959
    Largest TIA Amplitudes:
              2   2         0.0315588294
              3  25        -0.0239692339
              3  26        -0.0237072810
              2   0        -0.0236717044
              5  34        -0.0214793475
              5  35        -0.0196246855
              6  34        -0.0134892923
              2   4        -0.0119635089
              4  25        -0.0105198986
              2  11         0.0090319184

    Largest Tia Amplitudes:
              3  24        -0.1686610564
              3  26        -0.0603756666
              3  27        -0.0332881668
              3  31         0.0210467000
              4  36        -0.0178447347
              4  35        -0.0177832610
              3  30        -0.0157504728
              5  35        -0.0136087262
              2   2         0.0120917129
              2   0        -0.0087719962

    Largest TIJAB Amplitudes:
      6   4  19   5         0.0315192244
      6   2  35   2         0.0248483932
      4   2  26   2         0.0236954010
      6   4  35  26        -0.0182711321
      5   4  19   5        -0.0179118632
      6   2  35   0        -0.0170885068
      4   2  26   0        -0.0163049345
      6   4  21   5         0.0158085866
      6   4  19  10        -0.0157956775
      6   4  21  10        -0.0137428149

    Largest Tijab Amplitudes:
      3   2  24   2        -0.0511650280
      3   2  24   0         0.0354159540
      3   2  24   3         0.0352733288
      5   3  36  24         0.0348293086
      5   3  19   5         0.0259827344
      5   2  36   2         0.0240734376
      3   2  24   4         0.0220915409
      4   3  19   5        -0.0214091731
      3   2  26   2        -0.0202715199
      3   2  24   6        -0.0184188376

    Largest TIjAb Amplitudes:
      2   3   2  24        -0.0668587582
      2   2   2   2        -0.0566479112
      2   3   0  24         0.0456035592
      4   3  26  24         0.0434096225
      6   5  35  36        -0.0370182285
      2   2   0   2         0.0357484289
      6   3  35  24         0.0354096449
      2   2   2   3         0.0349580942
      2   2   2   0         0.0348012456
      4   3  19  19        -0.0322405753

    SCF energy       (wfn)                    = -534.272113548498510
    Reference energy (file100)                = -534.272113548499078

    Opposite-spin MP2 correlation energy      =   -0.226958018397230
    Same-spin MP2 correlation energy          =   -0.083648764978606
    MP2 correlation energy                    =   -0.310606783375844
      * MP2 total energy                      = -534.582720331874953
      * CCSD total energy                     = -534.612581679794971
*** Psi4 exiting successfully. Buy a developer a beer!
