                               Psi4 1.2a1.dev939

  ==> Input File <==

--------------------------------------------------------------------------
# Any line starting with the # character is a comment line
memory 250000 mb
molecule molecule{
0 2
Cl         0.0000000000        0.0000000000       -0.4834702805
O          0.0000000000        0.0000000000        1.0713196655
}

set {
  reference uhf
  basis aug-cc-pv(6+d)z
  scf_type OUT_OF_CORE
  freeze_core true
}

energy('ccsd')
--------------------------------------------------------------------------

    Molecular point group: c2v

    Geometry (in Angstrom), charge = 0, multiplicity = 2:

       Center              X                  Y                   Z               Mass
    ------------   -----------------  -----------------  -----------------  -----------------
          CL          0.000000000000     0.000000000000    -0.487968879743    34.968852682000
           O          0.000000000000     0.000000000000     1.066821066257    15.994914619560

  Charge       = 0
  Multiplicity = 2
  Basis Set: AUG-CC-PV(6+D)Z
    Blend: AUG-CC-PV(6+D)Z

    Orbital Energies (a.u.)
    -----------------------

    Alpha Occupied:

       1A1  -104.918137     2A1   -20.693997     3A1   -10.638978
       1B1    -8.107907     4A1    -8.104182     1B2    -8.103116
       5A1    -1.489860     6A1    -1.063186     2B1    -0.743293
       2B2    -0.673082     7A1    -0.672311     3B1    -0.489267
       3B2    -0.454517

    Alpha Virtual:

       8A1     0.046841     9A1     0.062630     4B1     0.070116
       4B2     0.072003     5B1     0.102240     5B2     0.104127
      10A1     0.104325    11A1     0.132527    12A1     0.206689
       1A2     0.212019    13A1     0.212062     6B1     0.244554
       6B2     0.248474    14A1     0.269960     7B1     0.295159
       7B2     0.299385    15A1     0.350183    16A1     0.372953
       2A2     0.385905    17A1     0.386412     8B1     0.386989
       8B2     0.396400    18A1     0.468686     9B1     0.477042
       9B2     0.487829     3A2     0.528988    19A1     0.528992
      10B1     0.548595    10B2     0.548598    20A1     0.558816
      11B1     0.587392    11B2     0.594126    21A1     0.637068
       4A2     0.643814    22A1     0.644376    12B1     0.748528
      12B2     0.755869    23A1     0.807297    13B1     0.854493
      13B2     0.854495    24A1     0.936258     5A2     0.936425
      25A1     0.954211    14B1     0.974999    14B2     0.982184
      26A1     0.989670     6A2     1.023867    27A1     1.023867
      15B1     1.033082    15B2     1.043410    28A1     1.067441
       7A2     1.067679    29A1     1.088081    16B1     1.132581
      16B2     1.151419    17B1     1.151689    17B2     1.161013
      18B1     1.184487    18B2     1.191656    30A1     1.216736
       8A2     1.218153    31A1     1.223266    32A1     1.342527
      19B1     1.389890    19B2     1.389899    33A1     1.406108
       9A2     1.406879    34A1     1.424323    20B1     1.427750
      20B2     1.435706    21B1     1.516662    21B2     1.534261
      35A1     1.552268    10A2     1.595238    36A1     1.595560
      37A1     1.873549    22B1     1.925166    22B2     1.938614
      38A1     2.047250    11A2     2.050510    39A1     2.050510
      23B1     2.204471    23B2     2.204481    12A2     2.252835
      40A1     2.253088    24B1     2.354642    24B2     2.354652
      41A1     2.366551    13A2     2.366966    25B1     2.415901
      25B2     2.415901    42A1     2.450892    14A2     2.450892
      43A1     2.458095    26B1     2.467901    26B2     2.482985
      27B1     2.516462    27B2     2.527225    28B1     2.564848
      28B2     2.564921    44A1     2.569079    15A2     2.569079
      45A1     2.594529    29B1     2.598652    29B2     2.618703
      46A1     2.693591    16A2     2.693966    47A1     2.744859
      48A1     2.815481    30B1     2.868251    17A2     2.876434
      49A1     2.877730    30B2     2.880193    31B1     2.899540
      31B2     2.915322    32B1     2.919532    32B2     2.919626
      50A1     2.950695    18A2     2.952189    51A1     2.955787
      33B1     2.962715    33B2     3.004623    34B1     3.033786
      34B2     3.033961    19A2     3.081934    52A1     3.082389
      53A1     3.145630    35B1     3.329835    35B2     3.351983
      54A1     3.379042    55A1     3.605282    36B1     3.637099
      36B2     3.654485    56A1     3.721872    20A2     3.757682
      57A1     3.758634    37B1     4.390295    37B2     4.390295
      38B1     4.481967    38B2     4.501420    21A2     4.543860
      58A1     4.543860    59A1     4.777996    22A2     4.778837
      39B1     4.800211    39B2     4.800223    60A1     4.847988
      61A1     4.959682    40B1     5.001905    23A2     5.016440
      62A1     5.016440    40B2     5.021630    41B1     5.128220
      41B2     5.136459    42B1     5.137196    42B2     5.146471
      63A1     5.196065    24A2     5.196065    64A1     5.213081
      25A2     5.213573    43B1     5.253284    43B2     5.253284
      65A1     5.282870    26A2     5.282873    66A1     5.374146
      44B1     5.377802    44B2     5.377802    45B1     5.401799
      45B2     5.401821    27A2     5.418864    67A1     5.419792
      46B1     5.529769    46B2     5.530278    28A2     5.549702
      68A1     5.549702    47B1     5.560630    47B2     5.579406
      69A1     5.663413    29A2     5.735405    70A1     5.735405
      48B1     5.811965    48B2     5.811976    71A1     5.852919
      30A2     5.895972    72A1     5.897622    49B1     6.010143
      49B2     6.010149    50B1     6.032017    50B2     6.053641
      73A1     6.065470    31A2     6.065704    51B1     6.070616
      32A2     6.087827    74A1     6.087868    51B2     6.097859
      75A1     6.268714    76A1     6.349055    52B1     6.355830
      52B2     6.376705    33A2     6.535721    77A1     6.536278
      78A1     6.651581    34A2     6.652877    79A1     6.684276
      53B1     6.725969    53B2     6.725980    80A1     6.760231
      54B1     6.860892    54B2     6.896705    81A1     7.121812
      55B1     7.369475    55B2     7.396338    82A1     7.524993
      56B1     7.973069    56B2     8.007667    35A2     8.047658
      83A1     8.047983    57B1     8.389755    57B2     8.412238
      84A1     9.133250    58B1     9.234949    58B2     9.265428
      85A1     9.338815    36A2     9.338815    59B1     9.382095
      59B2     9.382095    86A1     9.430748    87A1     9.678579
      37A2     9.678579    60B1     9.775813    60B2     9.775976
      61B1     9.801965    61B2     9.819765    88A1     9.908840
      38A2     9.908842    89A1     9.930994    39A2     9.931708
      90A1     9.984119    62B1    10.154242    62B2    10.154248
      40A2    10.212515    91A1    10.212803    92A1    10.273866
      63B1    10.747829    63B2    10.747829    93A1    10.813646
      41A2    10.813646    94A1    10.981345    42A2    10.981345
      64B1    11.022565    64B2    11.024289    65B1    11.024291
      65B2    11.047876    95A1    11.206959    43A2    11.206963
      66B1    11.229089    66B2    11.242696    67B1    11.242696
      67B2    11.249283    96A1    11.277086    68B1    11.316506
      68B2    11.316874    44A2    11.326751    97A1    11.326805
      45A2    11.346299    98A1    11.349067    69B1    11.366795
      69B2    11.366799    99A1    11.701664    46A2    11.706233
     100A1    11.719050    70B1    11.778969    70B2    11.792192
      71B1    11.800637    71B2    11.800882   101A1    11.852146
      47A2    12.164550   102A1    12.164569    72B1    12.316055
      72B2    12.341307    73B1    12.356498    73B2    12.360366
      74B1    12.397066    74B2    12.397181   103A1    12.461993
     104A1    12.765142    48A2    12.765936   105A1    12.912877
      49A2    12.973259   106A1    12.973266    50A2    13.043680
     107A1    13.044638    75B1    13.237967    75B2    13.261595
      76B1    13.283772    76B2    13.287923   108A1    13.702517
      51A2    13.703117    77B1    13.718909    77B2    13.750769
     109A1    13.941708   110A1    14.038465    52A2    14.041102
     111A1    14.243416    78B1    14.725631    78B2    14.765079
      79B1    14.880436    79B2    14.903174   112A1    15.075508
      53A2    15.075706   113A1    15.463118    80B1    16.771555
      80B2    16.810245   114A1    16.955114   115A1    17.915985
     116A1    21.681926   117A1    22.685359    54A2    22.685359
      81B1    22.699301    81B2    22.699301   118A1    22.850549
      55A2    22.850550    82B1    22.932512    82B2    22.990405
      83B1    23.208241    83B2    23.208497    84B1    23.454028
     119A1    23.481387    56A2    23.491509    84B2    23.499047
     120A1    23.581843   121A1    24.638565    85B1    26.762740
      85B2    26.762740   122A1    26.840854    57A2    26.840861
      86B1    27.039533    86B2    27.040012   123A1    27.116858
      58A2    27.122258    87B1    27.228839    87B2    27.278920
     124A1    27.336608    88B1    28.456026    88B2    28.456030
     125A1    28.913829    59A2    28.914289    89B1    30.071210
      89B2    30.123242   126A1    30.437458   127A1    31.434609
      60A2    31.434610    90B1    31.583091    90B2    31.583163
     128A1    32.049443    61A2    32.056875    91B1    32.130153
      91B2    32.185010   129A1    32.231970   130A1    34.745224
      62A2    34.745681    92B1    35.534454    92B2    35.563015
     131A1    35.705756    93B1    35.857255    93B2    35.880145
     132A1    39.251762    63A2    39.251900   133A1    39.277297
      94B1    39.815391    94B2    39.819416   134A1    41.500079
     135A1   102.661082   136A1   287.447135

    Beta Occupied:

       1A1  -104.916759     2A1   -20.654327     3A1   -10.637675
       4A1    -8.106939     1B2    -8.102459     1B1    -8.098928
       5A1    -1.383994     6A1    -1.002972     2B2    -0.645268
       7A1    -0.634385     2B1    -0.527192     3B2    -0.436131

    Beta Virtual:

       3B1     0.044193     8A1     0.047917     9A1     0.063979
       4B1     0.071061     4B2     0.071984     5B2     0.104398
      10A1     0.104847     5B1     0.114676    11A1     0.140909
      12A1     0.210962     1A2     0.212993    13A1     0.213107
       6B2     0.248843     6B1     0.255230    14A1     0.273303
       7B1     0.297582     7B2     0.298789    15A1     0.352757
      16A1     0.373498     2A2     0.387134    17A1     0.387477
       8B2     0.398367     8B1     0.414625    18A1     0.473662
       9B2     0.488580     9B1     0.513126    19A1     0.537035
       3A2     0.537258    10B2     0.548907    10B1     0.548929
      20A1     0.560576    11B2     0.592133    11B1     0.595987
      21A1     0.640976     4A2     0.643726    22A1     0.644961
      12B2     0.754364    12B1     0.757702    23A1     0.812215
      13B2     0.855349    13B1     0.855349    24A1     0.944271
       5A2     0.944445    25A1     0.964494    14B1     0.979852
      14B2     0.981888    26A1     0.991625     6A2     1.024130
      27A1     1.024130    15B2     1.044120    15B1     1.048327
       7A2     1.075784    28A1     1.076052    29A1     1.093553
      16B2     1.151814    16B1     1.151843    17B2     1.168885
      17B1     1.189154    18B2     1.191040    18B1     1.204800
      30A1     1.226667     8A2     1.227986    31A1     1.228138
      32A1     1.343488    19B2     1.392888    19B1     1.392890
       9A2     1.408501    33A1     1.408563    34A1     1.429834
      20B1     1.432298    20B2     1.434476    21B2     1.535914
      21B1     1.542032    35A1     1.554177    10A2     1.606566
      36A1     1.606720    37A1     1.884056    22B1     1.935482
      22B2     1.938820    38A1     2.052220    11A2     2.052220
      39A1     2.056009    23B2     2.212217    23B1     2.212219
      12A2     2.259070    40A1     2.259130    24B1     2.357889
      24B2     2.357892    13A2     2.382658    41A1     2.382693
      25B2     2.416702    25B1     2.416702    42A1     2.453038
      14A2     2.453038    43A1     2.460617    26B1     2.478408
      26B2     2.483919    27B1     2.520677    27B2     2.526834
      28B1     2.567395    28B2     2.567415    15A2     2.570062
      44A1     2.570062    45A1     2.602691    29B1     2.620531
      29B2     2.621396    46A1     2.697847    16A2     2.697928
      47A1     2.748524    48A1     2.831442    30B1     2.876199
      30B2     2.880678    17A2     2.911483    49A1     2.912037
      31B1     2.916753    31B2     2.917170    32B2     2.924615
      32B1     2.924620    50A1     2.953170    18A2     2.954156
      51A1     2.957014    33B2     3.017011    33B1     3.036629
      34B2     3.037334    34B1     3.041653    19A2     3.088404
      52A1     3.088436    53A1     3.152271    35B1     3.354895
      35B2     3.355131    54A1     3.391193    55A1     3.609356
      36B1     3.646633    36B2     3.655523    56A1     3.737027
      20A2     3.764980    57A1     3.765341    37B2     4.394361
      37B1     4.394361    38B1     4.498579    38B2     4.503875
      58A1     4.546231    21A2     4.546231    59A1     4.783007
      22A2     4.783292    39B1     4.804392    39B2     4.804393
      60A1     4.853261    61A1     4.967359    40B1     5.011821
      23A2     5.020538    62A1     5.020538    40B2     5.022652
      41B1     5.138147    41B2     5.140624    42B1     5.141644
      42B2     5.147693    63A1     5.197682    24A2     5.197682
      64A1     5.219051    25A2     5.219460    43B1     5.253934
      43B2     5.253934    65A1     5.289308    26A2     5.289309
      66A1     5.378164    44B1     5.381114    44B2     5.381114
      45B1     5.413220    45B2     5.413227    27A2     5.426560
      67A1     5.426929    46B1     5.551197    46B2     5.551511
      28A2     5.558376    68A1     5.558376    47B1     5.567593
      47B2     5.579921    69A1     5.667503    29A2     5.738549
      70A1     5.738549    48B1     5.819211    48B2     5.819212
      71A1     5.867672    30A2     5.904292    72A1     5.904417
      49B1     6.015066    49B2     6.015066    50B1     6.044544
      50B2     6.054790    73A1     6.069117    31A2     6.069209
      51B1     6.096473    51B2     6.103196    32A2     6.141756
      74A1     6.141829    75A1     6.272441    76A1     6.355581
      52B1     6.368446    52B2     6.378811    33A2     6.540593
      77A1     6.540857    78A1     6.662898    34A2     6.663231
      79A1     6.701754    53B1     6.730550    53B2     6.730554
      80A1     6.765391    54B1     6.898040    54B2     6.904313
      81A1     7.133712    55B1     7.394081    55B2     7.400997
      82A1     7.539519    56B1     8.010768    56B2     8.015177
      35A2     8.059107    83A1     8.059167    57B1     8.406299
      57B2     8.415240    84A1     9.144815    58B1     9.260666
      58B2     9.271249    85A1     9.346674    36A2     9.346674
      59B1     9.388361    59B2     9.388361    86A1     9.441414
      87A1     9.683722    37A2     9.683722    60B1     9.779396
      60B2     9.779495    61B1     9.806672    61B2     9.820052
      88A1     9.912922    38A2     9.912924    89A1     9.934463
      39A2     9.935033    90A1     9.985500    62B1    10.156898
      62B2    10.156902    40A2    10.214265    91A1    10.214423
      92A1    10.280066    63B1    10.761962    63B2    10.761962
      93A1    10.822090    41A2    10.822090    94A1    10.984374
      42A2    10.984374    64B1    11.027469    64B2    11.027469
      65B1    11.033196    65B2    11.049828    95A1    11.209040
      43A2    11.209040    66B1    11.233374    66B2    11.246799
      67B1    11.246799    67B2    11.249781    96A1    11.283860
      68B1    11.322963    68B2    11.323132    44A2    11.332163
      97A1    11.332184    45A2    11.351838    98A1    11.353371
      69B1    11.368266    69B2    11.368269    99A1    11.708516
      46A2    11.712412   100A1    11.723143    70B1    11.782517
      70B2    11.792448    71B1    11.808930    71B2    11.808978
     101A1    11.857500   102A1    12.171605    47A2    12.171631
      72B1    12.334023    72B2    12.350868    73B1    12.382579
      73B2    12.382634    74B1    12.410850    74B2    12.410894
     103A1    12.466962   104A1    12.770669    48A2    12.770908
     105A1    12.924924    49A2    13.003651   106A1    13.003652
      50A2    13.061502   107A1    13.061648    75B1    13.254667
      75B2    13.271047    76B1    13.304843    76B2    13.305435
     108A1    13.719665    51A2    13.719849    77B1    13.741070
      77B2    13.756734   109A1    13.946618   110A1    14.063127
      52A2    14.064050   111A1    14.256807    78B1    14.750510
      78B2    14.772022    79B1    14.894405    79B2    14.906395
      53A2    15.109638   112A1    15.109687   113A1    15.473789
      80B1    16.800216    80B2    16.818133   114A1    16.965437
     115A1    17.921930   116A1    21.705767   117A1    22.702919
      54A2    22.702919    81B1    22.714355    81B2    22.714355
     118A1    22.863431    55A2    22.863431    82B1    22.986526
      82B2    23.003628    83B1    23.219920    83B2    23.220037
      84B1    23.467775   119A1    23.494421    56A2    23.501144
      84B2    23.503071   120A1    23.587054   121A1    24.655463
      85B1    26.788649    85B2    26.788649   122A1    26.862844
      57A2    26.862847    86B1    27.058498    86B2    27.058698
     123A1    27.134499    58A2    27.137455    87B1    27.248554
      87B2    27.285229   124A1    27.347512    88B1    28.493172
      88B2    28.493173   125A1    28.941799    59A2    28.941948
      89B1    30.102993    89B2    30.133635   126A1    30.455473
     127A1    31.466342    60A2    31.466342    90B1    31.609058
      90B2    31.609080   128A1    32.074493    61A2    32.077998
      91B1    32.157546    91B2    32.194163   129A1    32.245251
     130A1    34.777566    62A2    34.777667    92B1    35.554746
      92B2    35.568137   131A1    35.720455    93B1    35.873250
      93B2    35.884651   132A1    39.254855    63A2    39.254868
     133A1    39.277404    94B1    39.817421    94B2    39.818782
     134A1    41.499675   135A1   102.671263   136A1   287.447689

    Final Occupation by Irrep:
             A1    A2    B1    B2
    DOCC [     7,    0,    2,    3 ]
    SOCC [     0,    0,    1,    0 ]

  Energy converged.

  @UHF Final Energy:  -534.31874921373753

   => Energetics <=

    Nuclear Repulsion Energy =             46.2879892897377871
    One-Electron Energy =                -829.9146162750932945
    Two-Electron Energy =                 249.3078777716179957
    Total Energy =                       -534.3187492137375330

  UHF NO Occupations:
  HONO-2 :    7 A1 1.9973665
  HONO-1 :    2 B1 1.9945778
  HONO-0 :    3 B1 1.0000000
  LUNO+0 :    4 B1 0.0054222
  LUNO+1 :    8 A1 0.0026335
  LUNO+2 :    9 A1 0.0013154
  LUNO+3 :    4 B2 0.0004767

Properties will be evaluated at   0.000000,   0.000000,   0.000000 Bohr

Properties computed using the SCF density matrix

  Nuclear Dipole Moment: (a.u.)
     X:     0.0000      Y:     0.0000      Z:     0.4518

  Electronic Dipole Moment: (a.u.)
     X:     0.0000      Y:     0.0000      Z:    -0.7769

  Dipole Moment: (a.u.)
     X:     0.0000      Y:     0.0000      Z:    -0.3251     Total:     0.3251

  Dipole Moment: (Debye)
     X:     0.0000      Y:     0.0000      Z:    -0.8263     Total:     0.8263

*** tstop() called on n412-050.vsc4.prov at Fri Oct 30 18:09:12 2020
Module time:
	user time   =    1541.62 seconds =      25.69 minutes
	system time =     128.91 seconds =       2.15 minutes
	total time  =       1697 seconds =      28.28 minutes
Total time:
	user time   =    1541.62 seconds =      25.69 minutes
	system time =     128.91 seconds =       2.15 minutes
	total time  =       1697 seconds =      28.28 minutes

*** tstart() called on n412-050.vsc4.prov
*** at Fri Oct 30 18:09:12 2020

	Wfn Parameters:
	--------------------
	Wavefunction         = CCSD
	Number of irreps     = 4
	Number of MOs        = 387
	Number of active MOs = 381
	AO-Basis             = NONE
	Semicanonical        = false
	Reference            = UHF
	Print Level          = 1

	IRREP	# MOs	# FZDC	# DOCC	# SOCC	# VIRT	# FZVR
	-----	-----	------	------	------	------	------
	 A1	   136	    4	    3	    0	    129	    0
	 A2	   63	    0	    0	    0	    63	    0
	 B1	   94	    1	    1	    1	    91	    0
	 B2	   94	    1	    2	    0	    91	    0
	Transforming integrals...
	IWL integrals will be deleted.
	(OO|OO)...
	Presorting SO-basis two-electron integrals.
	Sorting File: SO Ints (nn|nn) nbuckets = 1
	Transforming the one-electron integrals and constructing Fock matrices
	Starting AA/AB first half-transformation.
	Sorting AA/AB half-transformed integrals.
	Starting BB first half-transformation.
	Sorting BB half-transformed integrals.
	First half integral transformation complete.
	Starting AA second half-transformation.
	Starting AB second half-transformation.
	Starting BB second half-transformation.
	Two-electron integral transformation complete.
	(OO|OV)...
	Starting AA second half-transformation.
	Starting AB second half-transformation.
	Starting BB second half-transformation.
	Two-electron integral transformation complete.
	(OO|VV)...
	Starting AA second half-transformation.
	Starting AB second half-transformation.
	Starting BB second half-transformation.
	Two-electron integral transformation complete.
	(OV|OO)...
	Starting AA/AB first half-transformation.
	Sorting AA/AB half-transformed integrals.
	Starting BB first half-transformation.
	Sorting BB half-transformed integrals.
	First half integral transformation complete.
	Starting AA second half-transformation.
	Starting AB second half-transformation.
	Starting BB second half-transformation.
	Two-electron integral transformation complete.
	(OV|OV)...
	Starting AA second half-transformation.
	Starting AB second half-transformation.
	Starting BB second half-transformation.
	Two-electron integral transformation complete.
	(OV|VV)...
	Starting AA second half-transformation.
	Starting AB second half-transformation.
	Starting BB second half-transformation.
	Two-electron integral transformation complete.
	(VV|OO)...
	Starting AA/AB first half-transformation.
	Sorting AA/AB half-transformed integrals.
	Starting BB first half-transformation.
	Sorting BB half-transformed integrals.

      * MP2 total energy                      = -534.765637424283227
      * CCSD total energy                     = -534.786282423299212
*** Psi4 exiting successfully. Buy a developer a beer!
