                               Psi4 1.4a3.dev88

  ==> Input File <==

--------------------------------------------------------------------------
# Any line starting with the # character is a comment line
memory 250000 mb
molecule molecule{
1 3
S          0.0000000000        0.0000000000       -0.0413619065
H          0.0000000000        0.0000000000        1.3156167249
}

set {
  reference uhf
  basis aug-cc-pV(5+d)Z
  scf_type OUT_OF_CORE
  freeze_core true
}

energy('ccsd(t)')
--------------------------------------------------------------------------

    Molecular point group: c2v

    Geometry (in Angstrom), charge = 1, multiplicity = 3:

       Center              X                  Y                   Z               Mass
    ------------   -----------------  -----------------  -----------------  -----------------
         S            0.000000000000     0.000000000000    -0.041467596634    31.972071174400
         H            0.000000000000     0.000000000000     1.315511034766     1.007825032230

  Charge       = 1
  Multiplicity = 3
  Basis Set: AUG-CC-PV(5+D)Z
    Blend: AUG-CC-PV(5+D)Z

    Orbital Energies [Eh]
    ---------------------

    Alpha Occupied:

       1A1   -92.406409     2A1    -9.401749     1B2    -7.095326
       1B1    -7.095326     3A1    -7.073902     4A1    -1.388650
       5A1    -0.898911     2B2    -0.835136     2B1    -0.835136

    Alpha Virtual:

       6A1    -0.149088     7A1    -0.103675     8A1    -0.080403
       3B2    -0.080121     3B1    -0.080121     4B1    -0.038720
       4B2    -0.038720     9A1    -0.035215    10A1    -0.033512
       1A2    -0.033512    11A1     0.047138     5B2     0.071544
       5B1     0.071544    12A1     0.077214    13A1     0.115303
       6B2     0.129180     6B1     0.129180    14A1     0.159686
       7B2     0.168412     7B1     0.168412    15A1     0.174913
       2A2     0.174913    16A1     0.236557     3A2     0.236557
       8B2     0.239592     8B1     0.239592    17A1     0.315526
       9B1     0.344463     9B2     0.344463    18A1     0.370594
      10B2     0.403613    10B1     0.403613    19A1     0.423955
       4A2     0.423955    20A1     0.429977    21A1     0.504891
      22A1     0.742542    11B2     0.761639    11B1     0.761639
      12B2     0.799135    12B1     0.799135    13B1     0.803908
      13B2     0.803908     5A2     0.811748    23A1     0.811748
      24A1     0.818953     6A2     0.818953    25A1     0.823456
      26A1     0.874702     7A2     0.874702    14B2     0.881117
      14B1     0.881117    15B1     0.893261    15B2     0.893261
      27A1     0.969308    16B2     0.981448    16B1     0.981448
      28A1     1.001130     8A2     1.001130    29A1     1.013105
      17B2     1.125342    17B1     1.125342    18B2     1.167032
      18B1     1.167032    30A1     1.198324    31A1     1.204904
       9A2     1.204904    32A1     1.291361    19B2     1.502315
      19B1     1.502315    33A1     1.546231    34A1     1.880253
      35A1     1.988149    10A2     1.988149    20B2     2.005207
      20B1     2.005207    21B2     2.135998    21B1     2.135998
      36A1     2.137475    22B1     2.214427    22B2     2.214427
      11A2     2.226673    37A1     2.226673    38A1     2.281173
      12A2     2.308131    39A1     2.308131    23B1     2.345066
      23B2     2.345066    13A2     2.354982    40A1     2.354982
      24B1     2.374591    24B2     2.374591    41A1     2.383904
      14A2     2.383904    25B2     2.385722    25B1     2.385722
      42A1     2.456103    26B2     2.552191    26B1     2.552191
      15A2     2.556124    43A1     2.556124    27B1     2.612582
      27B2     2.612582    44A1     2.676074    28B2     2.788818
      28B1     2.788818    45A1     2.882203    16A2     2.923396
      46A1     2.923396    47A1     2.927922    17A2     2.927922
      48A1     3.220148    29B2     3.252327    29B1     3.252327
      30B1     3.352177    30B2     3.352177    18A2     3.408373
      49A1     3.408373    50A1     3.615247    31B2     3.694439
      31B1     3.694439    51A1     3.889781    32B2     3.922904
      32B1     3.922904    33B2     4.180414    33B1     4.180414
      52A1     4.740586    19A2     4.740586    34B1     4.855921
      34B2     4.855921    53A1     4.898727    35B1     4.981889
      35B2     4.981889    54A1     5.018973    20A2     5.068096
      55A1     5.068096    36B1     5.163843    36B2     5.163843
      21A2     5.466019    56A1     5.466019    57A1     5.472518
      58A1     5.664377    37B1     5.666332    37B2     5.666332
      59A1     5.736119    22A2     5.736119    60A1     5.740921
      61A1     5.746868    23A2     5.746868    38B2     5.768895
      38B1     5.768895    39B1     5.772615    39B2     5.772615
      40B1     5.866842    40B2     5.866842    24A2     5.896851
      62A1     5.896851    25A2     5.963284    63A1     5.963284
      41B1     6.026269    41B2     6.026269    64A1     6.079560
      42B1     6.513953    42B2     6.513953    65A1     6.599455
      26A2     6.637916    66A1     6.637916    43B1     6.797565
      43B2     6.797565    67A1     7.554921    44B1     7.697484
      44B2     7.697484    68A1     9.304274    45B2    12.646466
      45B1    12.646466    69A1    12.805855    27A2    12.805855
      46B1    12.968191    46B2    12.968191    28A2    13.018952
      70A1    13.018952    47B1    13.174367    47B2    13.174367
      71A1    13.398780    29A2    13.451378    72A1    13.451378
      73A1    13.606597    48B1    13.973449    48B2    13.973449
      74A1    14.079514    30A2    14.079514    75A1    14.159216
      49B1    14.726114    49B2    14.726114    31A2    15.884788
      76A1    15.884788    77A1    16.148695    50B1    16.372472
      50B2    16.372472    78A1    16.664135    51B2    17.295130
      51B1    17.295130    79A1    18.621887    52B2    24.911118
      52B1    24.911118    80A1    27.900926    81A1    67.187629

    Beta Occupied:

       1A1   -92.384345     2A1    -9.379857     3A1    -7.062609
       1B1    -7.042560     1B2    -7.042560     4A1    -1.189724
       5A1    -0.860075

    Beta Virtual:

       2B1    -0.300620     2B2    -0.300620     6A1    -0.132942
       7A1    -0.084777     8A1    -0.078849     3B1    -0.067854
       3B2    -0.067854     9A1    -0.030111     4B1    -0.020852
       4B2    -0.020852     1A2    -0.000817    10A1    -0.000817
      11A1     0.054803     5B1     0.079270     5B2     0.079270
      12A1     0.084607    13A1     0.118239     6B1     0.159497
       6B2     0.159497    14A1     0.169215     7B1     0.206737
       7B2     0.206737     2A2     0.240741    15A1     0.240741
       8B1     0.246437     8B2     0.246437     3A2     0.264767
      16A1     0.264767    17A1     0.325274     9B2     0.352043
       9B1     0.352043    18A1     0.376257    10B1     0.412601
      10B2     0.412601     4A2     0.431853    19A1     0.431853
      20A1     0.447069    21A1     0.514290    22A1     0.752807
      11B1     0.788636    11B2     0.788636    12B1     0.811269
      12B2     0.811269     5A2     0.821157    23A1     0.821157
      24A1     0.840201    13B1     0.841465    13B2     0.841465
       6A2     0.884967    25A1     0.884967     7A2     0.900963
      26A1     0.900963    14B1     0.919948    14B2     0.919948
      15B1     0.922730    15B2     0.922730    27A1     0.972914
      16B2     0.989697    16B1     0.989697     8A2     1.013507
      28A1     1.013507    29A1     1.021422    17B1     1.131582
      17B2     1.131582    18B2     1.170289    18B1     1.170289
      30A1     1.207164     9A2     1.207164    31A1     1.210511
      32A1     1.303179    19B1     1.525050    19B2     1.525050
      33A1     1.550620    34A1     1.910450    10A2     1.997296
      35A1     1.997296    20B1     2.013401    20B2     2.013401
      21B1     2.152073    21B2     2.152073    36A1     2.153576
      11A2     2.270842    37A1     2.270842    22B1     2.279904
      22B2     2.279904    38A1     2.295027    12A2     2.325821
      39A1     2.325821    23B1     2.375045    23B2     2.375045
      13A2     2.390616    40A1     2.390616    24B2     2.394330
      24B1     2.394330    25B1     2.411906    25B2     2.411906
      14A2     2.423554    41A1     2.423554    42A1     2.466953
      26B1     2.566390    26B2     2.566390    15A2     2.573435
      43A1     2.573435    27B1     2.625461    27B2     2.625461
      44A1     2.687932    28B1     2.805088    28B2     2.805088
      45A1     2.889954    16A2     2.928919    46A1     2.928919
      47A1     2.933939    17A2     2.933939    48A1     3.221968
      29B1     3.260169    29B2     3.260169    30B1     3.353949
      30B2     3.353949    18A2     3.416019    49A1     3.416019
      50A1     3.617864    31B1     3.730714    31B2     3.730714
      51A1     3.897680    32B1     3.941798    32B2     3.941798
      33B2     4.186498    33B1     4.186498    19A2     4.756018
      52A1     4.756018    34B1     4.864441    34B2     4.864441
      53A1     4.911001    35B1     5.027424    35B2     5.027424
      54A1     5.030259    20A2     5.090881    55A1     5.090881
      36B1     5.181867    36B2     5.181867    56A1     5.481376
      21A2     5.489601    57A1     5.489601    37B1     5.672368
      37B2     5.672368    58A1     5.683903    59A1     5.747562
      22A2     5.747562    60A1     5.764230    38B1     5.792890
      38B2     5.792890    61A1     5.796902    23A2     5.796902
      39B2     5.806637    39B1     5.806637    40B1     5.906496
      40B2     5.906496    24A2     5.928312    62A1     5.928312
      25A2     5.984959    63A1     5.984959    41B1     6.050727
      41B2     6.050727    64A1     6.089029    42B1     6.524895
      42B2     6.524895    65A1     6.607072    26A2     6.657109
      66A1     6.657109    43B1     6.805318    43B2     6.805318
      67A1     7.562580    44B1     7.709667    44B2     7.709667
      68A1     9.310577    45B2    12.645541    45B1    12.645541
      69A1    12.805544    27A2    12.805544    46B1    12.968475
      46B2    12.968475    28A2    13.019126    70A1    13.019126
      47B1    13.174180    47B2    13.174180    71A1    13.397733
      29A2    13.451455    72A1    13.451455    73A1    13.606028
      48B1    13.972761    48B2    13.972761    74A1    14.078256
      30A2    14.078256    75A1    14.156547    49B1    14.727174
      49B2    14.727174    31A2    15.912836    76A1    15.912836
      77A1    16.150183    50B1    16.387903    50B2    16.387903
      78A1    16.674050    51B1    17.293673    51B2    17.293673
      79A1    18.620724    52B2    24.948695    52B1    24.948695
      80A1    27.908767    81A1    67.201950

    Final Occupation by Irrep:
             A1    A2    B1    B2
    DOCC [     5,    0,    1,    1 ]
    SOCC [     0,    0,    1,    1 ]

  @UHF Final Energy:  -397.77355922061179

   => Energetics <=

    Nuclear Repulsion Energy =              6.2394758287274827
    One-Electron Energy =                -556.0337954991080096
    Two-Electron Energy =                 152.0207604497688010
    Total Energy =                       -397.7735592206117872

  UHF NO Occupations:
  HONO-2 :    5 A1 1.9898507
  HONO-1 :    2 B2 1.0000000
  HONO-0 :    2 B1 1.0000000
  LUNO+0 :    6 A1 0.0101493
  LUNO+1 :    7 A1 0.0010958
  LUNO+2 :    3 B2 0.0000058
  LUNO+3 :    3 B1 0.0000058

Computation Completed

Properties will be evaluated at   0.000000,   0.000000,   0.000000 [a0]

Properties computed using the SCF density matrix

  Nuclear Dipole Moment: [e a0]
     X:     0.0000      Y:     0.0000      Z:     1.2322

  Electronic Dipole Moment: [e a0]
     X:     0.0000      Y:     0.0000      Z:    -0.7092

  Dipole Moment: [e a0]
     X:     0.0000      Y:     0.0000      Z:     0.5230     Total:     0.5230

  Dipole Moment: [D]
     X:     0.0000      Y:     0.0000      Z:     1.3293     Total:     1.3293

*** tstop() called on n412-045.vsc4.prov at Fri Jan 22 08:18:16 2021
Module time:
	user time   =     154.27 seconds =       2.57 minutes
	system time =      11.17 seconds =       0.19 minutes
	total time  =        100 seconds =       1.67 minutes
Total time:
	user time   =     154.27 seconds =       2.57 minutes
	system time =      11.17 seconds =       0.19 minutes
	total time  =        100 seconds =       1.67 minutes

*** tstart() called on n412-045.vsc4.prov
*** at Fri Jan 22 08:18:16 2021

	Wfn Parameters:
	--------------------
	Wavefunction         = CCSD_T
	Number of irreps     = 4
	Number of MOs        = 216
	Number of active MOs = 211
	AO-Basis             = NONE
	Semicanonical        = false
	Reference            = UHF
	Print Level          = 1

	IRREP	# MOs	# FZDC	# DOCC	# SOCC	# VIRT	# FZVR
	-----	-----	------	------	------	------	------
	 A1	   81	    3	    2	    0	    76	    0
	 A2	   31	    0	    0	    0	    31	    0
	 B1	   52	    1	    0	    1	    50	    0
	 B2	   52	    1	    0	    1	    50	    0
	Transforming integrals...
	IWL integrals will be deleted.
	(OO|OO)...
	Presorting SO-basis two-electron integrals.
	Sorting File: SO Ints (nn|nn) nbuckets = 1
	Constructing frozen core operators
	Starting AA/AB first half-transformation.
	Sorting AA/AB half-transformed integrals.
	Starting BB first half-transformation.
	Sorting BB half-transformed integrals.
	First half integral transformation complete.
	Starting AA second half-transformation.
	Starting AB second half-transformation.
	Starting BB second half-transformation.
	Two-electron integral transformation complete.
	(OO|OV)...
	Starting AA second half-transformation.
	Starting AB second half-transformation.
	Starting BB second half-transformation.
	Two-electron integral transformation complete.
	(OO|VV)...
	Starting AA second half-transformation.
	Starting AB second half-transformation.
	Starting BB second half-transformation.
	Two-electron integral transformation complete.
	(OV|OO)...
	Starting AA/AB first half-transformation.
	Sorting AA/AB half-transformed integrals.
	Starting BB first half-transformation.
	Sorting BB half-transformed integrals.
	First half integral transformation complete.
	Starting AA second half-transformation.
	Starting AB second half-transformation.
	Starting BB second half-transformation.
	Two-electron integral transformation complete.
	(OV|OV)...
	Starting AA second half-transformation.
	Starting AB second half-transformation.
	Starting BB second half-transformation.
	Two-electron integral transformation complete.
	(OV|VV)...
	Starting AA second half-transformation.
	Starting AB second half-transformation.
	Starting BB second half-transformation.
	Two-electron integral transformation complete.
	(VV|OO)...
	Starting AA/AB first half-transformation.
	Sorting AA/AB half-transformed integrals.
	Starting BB first half-transformation.
	Sorting BB half-transformed integrals.
	First half integral transformation complete.
	Starting AA second half-transformation.
	Starting AB second half-transformation.
	Starting BB second half-transformation.
	Two-electron integral transformation complete.
	(VV|OV)...
	Starting AA second half-transformation.
	Starting AB second half-transformation.
	Starting BB second half-transformation.
	Two-electron integral transformation complete.
	(VV|VV)...
	Starting AA second half-transformation.
	Starting AB second half-transformation.
	Starting BB second half-transformation.
	Two-electron integral transformation complete.
	Frozen core energy     =   -391.45356743359105

	Size of irrep 0 of <AB|CD> integrals:     33.235 (MW) /    265.882 (MB)
	Size of irrep 1 of <AB|CD> integrals:     23.581 (MW) /    188.646 (MB)
	Size of irrep 2 of <AB|CD> integrals:     28.622 (MW) /    228.980 (MB)
	Size of irrep 3 of <AB|CD> integrals:     28.622 (MW) /    228.980 (MB)
	Total:                                   114.061 (MW) /    912.488 (MB)

	Size of irrep 0 of <ab|cd> integrals:     34.398 (MW) /    275.186 (MB)
	Size of irrep 1 of <ab|cd> integrals:     24.572 (MW) /    196.575 (MB)
	Size of irrep 2 of <ab|cd> integrals:     29.779 (MW) /    238.231 (MB)
	Size of irrep 3 of <ab|cd> integrals:     29.779 (MW) /    238.231 (MB)
	Total:                                   118.528 (MW) /    948.222 (MB)

	Size of irrep 0 of <Ab|Cd> integrals:    140.115 (MW) /   1120.917 (MB)
	Size of irrep 1 of <Ab|Cd> integrals:     96.275 (MW) /    770.203 (MB)
	Size of irrep 2 of <Ab|Cd> integrals:    116.791 (MW) /    934.330 (MB)
	Size of irrep 3 of <Ab|Cd> integrals:    116.791 (MW) /    934.330 (MB)
	Total:                                   469.972 (MW) /   3759.779 (MB)

	Size of irrep 0 of <IA|BC> integrals:      2.958 (MW) /     23.662 (MB)
	Size of irrep 1 of <IA|BC> integrals:      1.573 (MW) /     12.587 (MB)
	Size of irrep 2 of <IA|BC> integrals:      2.215 (MW) /     17.719 (MB)
	Size of irrep 3 of <IA|BC> integrals:      2.215 (MW) /     17.719 (MB)
	Total:                                     8.961 (MW) /     71.687 (MB)

	Size of irrep 0 of <ia|bc> integrals:      1.815 (MW) /     14.518 (MB)
	Size of irrep 1 of <ia|bc> integrals:      0.615 (MW) /      4.917 (MB)
	Size of irrep 2 of <ia|bc> integrals:      1.113 (MW) /      8.906 (MB)
	Size of irrep 3 of <ia|bc> integrals:      1.113 (MW) /      8.906 (MB)
	Total:                                     4.656 (MW) /     37.247 (MB)

	Size of irrep 0 of <Ia|Bc> integrals:      3.007 (MW) /     24.053 (MB)
	Size of irrep 1 of <Ia|Bc> integrals:      1.609 (MW) /     12.873 (MB)
	Size of irrep 2 of <Ia|Bc> integrals:      2.259 (MW) /     18.069 (MB)
	Size of irrep 3 of <Ia|Bc> integrals:      2.259 (MW) /     18.069 (MB)
	Total:                                     9.133 (MW) /     73.065 (MB)

	Size of irrep 0 of <iA|bC> integrals:      1.799 (MW) /     14.394 (MB)
	Size of irrep 1 of <iA|bC> integrals:      0.608 (MW) /      4.867 (MB)
	Size of irrep 2 of <iA|bC> integrals:      1.081 (MW) /      8.646 (MB)
	Size of irrep 3 of <iA|bC> integrals:      1.081 (MW) /      8.646 (MB)
	Total:                                     4.569 (MW) /     36.552 (MB)

	Size of irrep 0 of tIjAb amplitudes:       0.047 (MW) /      0.379 (MB)
	Size of irrep 1 of tIjAb amplitudes:       0.000 (MW) /      0.000 (MB)
	Size of irrep 2 of tIjAb amplitudes:       0.022 (MW) /      0.173 (MB)
	Size of irrep 3 of tIjAb amplitudes:       0.022 (MW) /      0.173 (MB)
	Total:                                     0.091 (MW) /      0.725 (MB)

	Nuclear Rep. energy          =      6.23947582872748
	SCF energy                   =   -397.77355922061179
	One-electron energy          =    -19.11130288259923
	Two-electron (AA) energy     =      2.38380705956399
	Two-electron (BB) energy     =      0.34977297821278
	Two-electron (AB) energy     =      3.81825522907351
	Two-electron energy          =      6.55183526685028
	Reference energy             =   -397.77355922061253

*** tstop() called on n412-045.vsc4.prov at Fri Jan 22 08:21:04 2021
Module time:
	user time   =      52.74 seconds =       0.88 minutes
	system time =      34.78 seconds =       0.58 minutes
	total time  =        168 seconds =       2.80 minutes
Total time:
	user time   =     207.01 seconds =       3.45 minutes
	system time =      45.95 seconds =       0.77 minutes
	total time  =        268 seconds =       4.47 minutes
            **************************
            *                        *
            *        CCENERGY        *
            *                        *
            **************************

    Nuclear Rep. energy (wfn)     =    6.239475828727483
    SCF energy          (wfn)     = -397.773559220611787
    Reference energy    (file100) = -397.773559220612526

    Input parameters:
    -----------------
    Wave function   =     CCSD_T
    Reference wfn   =     UHF
    Brueckner       =     No
    Memory (Mbytes) =     250000.0
    Maxiter         =     50
    R_Convergence   =     1.0e-07
    E_Convergence   =     1.0e-06
    Restart         =     Yes
    DIIS            =     Yes
    AO Basis        =     NONE
    ABCD            =     NEW
    Cache Level     =     2
    Cache Type      =     LRU
    Print Level     =     1
    Num. of threads =     48
    # Amps to Print =     10
    Print MP2 Amps? =     No
    Analyze T2 Amps =     No
    Print Pair Ener =     No
    Local CC        =     No

      * MP2 total energy                      = -397.902491298868256
      * CCSD total energy                     = -397.924413628234106
      * CCSD(T) total energy                     = -397.929832798465100
*** Psi4 exiting successfully. Buy a developer a beer!
