                               Psi4 1.4a3.dev88

  ==> Input File <==

--------------------------------------------------------------------------
# Any line starting with the # character is a comment line
memory 250000 mb
molecule molecule{
0 2
N          0.0000000000        0.0000000000        0.0799387399
H          0.0000000000        0.8010586797       -0.5554288686
H          0.0000000000       -0.8010586797       -0.5554288686
}

set {
  reference uhf
  basis aug-cc-pV(d+d)Z
  scf_type OUT_OF_CORE
  freeze_core true
}

energy('ccsd(t)')
--------------------------------------------------------------------------

    Molecular point group: c2v

    Geometry (in Angstrom), charge = 0, multiplicity = 2:

       Center              X                  Y                   Z               Mass
    ------------   -----------------  -----------------  -----------------  -----------------
         N           -0.000000000000     0.000000000000     0.079948862064    14.003074004430
         H           -0.000000000000     0.801058679700    -0.555418746436     1.007825032230
         H            0.000000000000    -0.801058679700    -0.555418746436     1.007825032230

  Charge       = 0
  Multiplicity = 2
  Basis Set: AUG-CC-PV(D+D)Z
    Blend: AUG-CC-PV(D+D)Z

    Orbital Energies [Eh]
    ---------------------

    Alpha Occupied:

       1A1   -15.606195     2A1    -1.168453     1B2    -0.648120
       1B1    -0.514423     3A1    -0.508203

    Alpha Virtual:

       4A1     0.034868     2B2     0.058018     2B1     0.153129
       5A1     0.153849     6A1     0.198319     3B2     0.205232
       4B2     0.285778     7A1     0.308656     1A2     0.365870
       8A1     0.373255     3B1     0.402312     5B2     0.528144
       9A1     0.594415     6B2     0.613532     7B2     0.698226
      10A1     0.723068     4B1     0.788738     2A2     0.859201
      11A1     0.870034    12A1     1.115509     5B1     1.199709
       8B2     1.200517    13A1     1.284500     9B2     1.816738
       3A2     1.831464     6B1     1.942032    14A1     2.069128
      10B2     2.141654    15A1     2.256966    11B2     2.365471
      16A1     2.416569     7B1     2.635715     4A2     2.705500
      17A1     2.821859    18A1     3.162816    12B2     3.482664

    Beta Occupied:

       1A1   -15.574223     2A1    -1.046904     1B2    -0.623335
       3A1    -0.462892

    Beta Virtual:

       4A1     0.036502     2B2     0.058551     1B1     0.071274
       5A1     0.156844     3B2     0.205835     6A1     0.205919
       2B1     0.227007     4B2     0.290368     7A1     0.313242
       1A2     0.374273     8A1     0.380021     3B1     0.441116
       5B2     0.528084     9A1     0.610428     6B2     0.619064
       7B2     0.700637    10A1     0.767650     4B1     0.830910
      11A1     0.872626     2A2     0.892164    12A1     1.123137
       8B2     1.210098    13A1     1.304618     5B1     1.334731
       9B2     1.820565     3A2     1.847561     6B1     1.960513
      14A1     2.075648    10B2     2.144245    15A1     2.291772
      11B2     2.377618    16A1     2.480240     7B1     2.710435
       4A2     2.778401    17A1     2.839619    18A1     3.192707
      12B2     3.494963

    Final Occupation by Irrep:
             A1    A2    B1    B2
    DOCC [     3,    0,    0,    1 ]
    SOCC [     0,    0,    1,    0 ]

  @UHF Final Energy:   -55.57511896053943

   => Energetics <=

    Nuclear Repulsion Energy =              7.5761700178901341
    One-Electron Energy =                 -90.1498298757052225
    Two-Electron Energy =                  26.9985408972756602
    Total Energy =                        -55.5751189605394273

  UHF NO Occupations:
  HONO-2 :    1 B2 1.9990717
  HONO-1 :    3 A1 1.9970536
  HONO-0 :    1 B1 1.0000000
  LUNO+0 :    4 A1 0.0029464
  LUNO+1 :    2 B2 0.0009283
  LUNO+2 :    5 A1 0.0006738
  LUNO+3 :    6 A1 0.0000005

Computation Completed

Properties will be evaluated at   0.000000,   0.000000,   0.000000 [a0]

Properties computed using the SCF density matrix

  Nuclear Dipole Moment: [e a0]
     X:     0.0000      Y:     0.0000      Z:    -1.0416

  Electronic Dipole Moment: [e a0]
     X:     0.0000      Y:     0.0000      Z:     0.2943

  Dipole Moment: [e a0]
     X:     0.0000      Y:     0.0000      Z:    -0.7473     Total:     0.7473

  Dipole Moment: [D]
     X:     0.0000      Y:     0.0000      Z:    -1.8995     Total:     1.8995

*** tstop() called on n412-039.vsc4.prov at Tue Jan 26 18:32:01 2021
Module time:
	user time   =      17.41 seconds =       0.29 minutes
	system time =       0.93 seconds =       0.02 minutes
	total time  =          1 seconds =       0.02 minutes
Total time:
	user time   =      17.41 seconds =       0.29 minutes
	system time =       0.93 seconds =       0.02 minutes
	total time  =          1 seconds =       0.02 minutes

*** tstart() called on n412-039.vsc4.prov
*** at Tue Jan 26 18:32:01 2021

	Wfn Parameters:
	--------------------
	Wavefunction         = CCSD_T
	Number of irreps     = 4
	Number of MOs        = 41
	Number of active MOs = 40
	AO-Basis             = NONE
	Semicanonical        = false
	Reference            = UHF
	Print Level          = 1

	IRREP	# MOs	# FZDC	# DOCC	# SOCC	# VIRT	# FZVR
	-----	-----	------	------	------	------	------
	 A1	   18	    1	    2	    0	    15	    0
	 A2	   4	    0	    0	    0	    4	    0
	 B1	   7	    0	    0	    1	    6	    0
	 B2	   12	    0	    1	    0	    11	    0
	Transforming integrals...
	IWL integrals will be deleted.
	(OO|OO)...
	Presorting SO-basis two-electron integrals.
	Sorting File: SO Ints (nn|nn) nbuckets = 1
	Constructing frozen core operators
	Starting AA/AB first half-transformation.
	Sorting AA/AB half-transformed integrals.
	Starting BB first half-transformation.
	Sorting BB half-transformed integrals.
	First half integral transformation complete.
	Starting AA second half-transformation.
	Starting AB second half-transformation.
	Starting BB second half-transformation.
	Two-electron integral transformation complete.
	(OO|OV)...
	Starting AA second half-transformation.
	Starting AB second half-transformation.
	Starting BB second half-transformation.
	Two-electron integral transformation complete.
	(OO|VV)...
	Starting AA second half-transformation.
	Starting AB second half-transformation.
	Starting BB second half-transformation.
	Two-electron integral transformation complete.
	(OV|OO)...
	Starting AA/AB first half-transformation.
	Sorting AA/AB half-transformed integrals.
	Starting BB first half-transformation.
	Sorting BB half-transformed integrals.
	First half integral transformation complete.
	Starting AA second half-transformation.
	Starting AB second half-transformation.
	Starting BB second half-transformation.
	Two-electron integral transformation complete.
	(OV|OV)...
	Starting AA second half-transformation.
	Starting AB second half-transformation.
	Starting BB second half-transformation.
	Two-electron integral transformation complete.
	(OV|VV)...
	Starting AA second half-transformation.
	Starting AB second half-transformation.
	Starting BB second half-transformation.
	Two-electron integral transformation complete.
	(VV|OO)...
	Starting AA/AB first half-transformation.
	Sorting AA/AB half-transformed integrals.
	Starting BB first half-transformation.
	Sorting BB half-transformed integrals.
	First half integral transformation complete.
	Starting AA second half-transformation.
	Starting AB second half-transformation.
	Starting BB second half-transformation.
	Two-electron integral transformation complete.
	(VV|OV)...
	Starting AA second half-transformation.
	Starting AB second half-transformation.
	Starting BB second half-transformation.
	Two-electron integral transformation complete.
	(VV|VV)...
	Starting AA second half-transformation.
	Starting AB second half-transformation.
	Starting BB second half-transformation.
	Two-electron integral transformation complete.
	Frozen core energy     =    -46.80253008062479

	Size of irrep 0 of <AB|CD> integrals:      0.033 (MW) /      0.262 (MB)
	Size of irrep 1 of <AB|CD> integrals:      0.016 (MW) /      0.127 (MB)
	Size of irrep 2 of <AB|CD> integrals:      0.018 (MW) /      0.144 (MB)
	Size of irrep 3 of <AB|CD> integrals:      0.036 (MW) /      0.286 (MB)
	Total:                                     0.102 (MW) /      0.819 (MB)

	Size of irrep 0 of <ab|cd> integrals:      0.035 (MW) /      0.280 (MB)
	Size of irrep 1 of <ab|cd> integrals:      0.019 (MW) /      0.150 (MB)
	Size of irrep 2 of <ab|cd> integrals:      0.022 (MW) /      0.178 (MB)
	Size of irrep 3 of <ab|cd> integrals:      0.037 (MW) /      0.298 (MB)
	Total:                                     0.113 (MW) /      0.906 (MB)

	Size of irrep 0 of <Ab|Cd> integrals:      0.163 (MW) /      1.306 (MB)
	Size of irrep 1 of <Ab|Cd> integrals:      0.069 (MW) /      0.553 (MB)
	Size of irrep 2 of <Ab|Cd> integrals:      0.080 (MW) /      0.641 (MB)
	Size of irrep 3 of <Ab|Cd> integrals:      0.146 (MW) /      1.167 (MB)
	Total:                                     0.458 (MW) /      3.667 (MB)

	Size of irrep 0 of <IA|BC> integrals:      0.019 (MW) /      0.150 (MB)
	Size of irrep 1 of <IA|BC> integrals:      0.006 (MW) /      0.050 (MB)
	Size of irrep 2 of <IA|BC> integrals:      0.008 (MW) /      0.066 (MB)
	Size of irrep 3 of <IA|BC> integrals:      0.015 (MW) /      0.124 (MB)
	Total:                                     0.049 (MW) /      0.390 (MB)

	Size of irrep 0 of <ia|bc> integrals:      0.017 (MW) /      0.135 (MB)
	Size of irrep 1 of <ia|bc> integrals:      0.004 (MW) /      0.033 (MB)
	Size of irrep 2 of <ia|bc> integrals:      0.005 (MW) /      0.043 (MB)
	Size of irrep 3 of <ia|bc> integrals:      0.014 (MW) /      0.114 (MB)
	Total:                                     0.041 (MW) /      0.325 (MB)

	Size of irrep 0 of <Ia|Bc> integrals:      0.019 (MW) /      0.155 (MB)
	Size of irrep 1 of <Ia|Bc> integrals:      0.007 (MW) /      0.055 (MB)
	Size of irrep 2 of <Ia|Bc> integrals:      0.009 (MW) /      0.075 (MB)
	Size of irrep 3 of <Ia|Bc> integrals:      0.016 (MW) /      0.125 (MB)
	Total:                                     0.051 (MW) /      0.410 (MB)

	Size of irrep 0 of <iA|bC> integrals:      0.017 (MW) /      0.133 (MB)
	Size of irrep 1 of <iA|bC> integrals:      0.004 (MW) /      0.029 (MB)
	Size of irrep 2 of <iA|bC> integrals:      0.005 (MW) /      0.036 (MB)
	Size of irrep 3 of <iA|bC> integrals:      0.014 (MW) /      0.113 (MB)
	Total:                                     0.039 (MW) /      0.311 (MB)

	Size of irrep 0 of tIjAb amplitudes:       0.002 (MW) /      0.016 (MB)
	Size of irrep 1 of tIjAb amplitudes:       0.000 (MW) /      0.002 (MB)
	Size of irrep 2 of tIjAb amplitudes:       0.001 (MW) /      0.005 (MB)
	Size of irrep 3 of tIjAb amplitudes:       0.002 (MW) /      0.012 (MB)
	Total:                                     0.004 (MW) /      0.035 (MB)

	Nuclear Rep. energy          =      7.57617001789013
	SCF energy                   =    -55.57511896053943
	One-electron energy          =    -27.72518760275793
	Two-electron (AA) energy     =      3.01328367744946
	Two-electron (BB) energy     =      1.38461203566351
	Two-electron (AB) energy     =      6.97853299184027
	Two-electron energy          =     11.37642870495325
	Reference energy             =    -55.57511896053934

*** tstop() called on n412-039.vsc4.prov at Tue Jan 26 18:32:03 2021
Module time:
	user time   =       0.09 seconds =       0.00 minutes
	system time =       0.19 seconds =       0.00 minutes
	total time  =          2 seconds =       0.03 minutes
Total time:
	user time   =      17.50 seconds =       0.29 minutes
	system time =       1.12 seconds =       0.02 minutes
	total time  =          3 seconds =       0.05 minutes
            **************************
            *                        *
            *        CCENERGY        *
            *                        *
            **************************

    Nuclear Rep. energy (wfn)     =    7.576170017890134
    SCF energy          (wfn)     =  -55.575118960539427
    Reference energy    (file100) =  -55.575118960539342

    Input parameters:
    -----------------
    Wave function   =     CCSD_T
    Reference wfn   =     UHF
    Brueckner       =     No
    Memory (Mbytes) =     250000.0
    Maxiter         =     50
    R_Convergence   =     1.0e-07
    E_Convergence   =     1.0e-06
    Restart         =     Yes
    DIIS            =     Yes
    AO Basis        =     NONE
    ABCD            =     NEW
    Cache Level     =     2
    Cache Type      =     LRU
    Print Level     =     1
    Num. of threads =     48
    # Amps to Print =     10
    Print MP2 Amps? =     No
    Analyze T2 Amps =     No
    Print Pair Ener =     No
    Local CC        =     No
    SCS-MP2         =     False
    SCSN-MP2        =     False
    SCS-CCSD        =     False

MP2 correlation energy -0.1532238661732314
                Solving CC Amplitude Equations
                ------------------------------
  Iter             Energy              RMS        T1Diag      D1Diag    New D1Diag    D2Diag
  ----     ---------------------    ---------   ----------  ----------  ----------   --------
     0        -0.153223866173231    0.000e+00    0.000000    0.000000    0.000000    0.000000
     1        -0.166956425409425    4.250e-02    0.010308    0.000000    0.000000    0.000000
     2        -0.171787779762216    1.504e-02    0.013511    0.000000    0.000000    0.000000
     3        -0.172602921870832    5.946e-03    0.015389    0.000000    0.000000    0.000000
     4        -0.172593094291920    2.284e-03    0.015868    0.000000    0.000000    0.000000
     5        -0.172598567615643    8.765e-04    0.015926    0.000000    0.000000    0.000000
     6        -0.172613423972192    3.248e-04    0.015915    0.000000    0.000000    0.000000
     7        -0.172615151336728    1.166e-04    0.015894    0.000000    0.000000    0.000000
     8        -0.172615474792048    3.971e-05    0.015889    0.000000    0.000000    0.000000
     9        -0.172615412803516    1.593e-05    0.015888    0.000000    0.000000    0.000000
    10        -0.172615380253429    7.610e-06    0.015888    0.000000    0.000000    0.000000
    11        -0.172615439209000    3.146e-06    0.015888    0.000000    0.000000    0.000000
    12        -0.172615484000021    1.209e-06    0.015889    0.000000    0.000000    0.000000
    13        -0.172615497784396    4.584e-07    0.015889    0.000000    0.000000    0.000000
    14        -0.172615500972973    1.748e-07    0.015889    0.000000    0.000000    0.000000
    15        -0.172615500880772    7.656e-08    0.015889    0.000000    0.000000    0.000000

    Iterations converged.

    Largest TIA Amplitudes:
              2  19        -0.0199491503
              2  20        -0.0147537956
              1   1         0.0127491814
              1   4         0.0105700032
              3  34         0.0065720154
              3  27        -0.0062284656
              0   2         0.0058374155
              0   6         0.0040502081
              1  12        -0.0039276828
              1   6        -0.0036972454

    Largest Tia Amplitudes:
              1   4         0.0124271253
              1   1         0.0101370353
              2  35         0.0074313448
              0   6        -0.0068619478
              0  12        -0.0064751056
              0   4        -0.0059281038
              2  31         0.0051591963
              2  32         0.0046856760
              0   3         0.0044743875
              0   8        -0.0043052619

    Largest TIJAB Amplitudes:
      2   1  22   9        -0.0145187512
      3   1  30   7        -0.0126691909
      3   1  27   4         0.0122088882
      3   2  27  22        -0.0120048728
      2   1  20   4         0.0115882233
      3   2  16   6         0.0114663409
      3   2  31  22        -0.0113908979
      2   1  22   4         0.0113108430
      2   1  21   6        -0.0112764482
      3   2  27  20        -0.0105921841

    Largest Tijab Amplitudes:
      2   1  31   7        -0.0122627424
      2   1  28   4         0.0121699515
      2   1  31   4         0.0099640008
      2   1  28   9        -0.0096084609
      2   1  28   1         0.0085768420
      2   1  32   9        -0.0084174280
      2   1  31   9        -0.0077395776
      2   1  31   3         0.0072927190
      2   1  28   7        -0.0070679321
      1   0  22  19        -0.0070026420

    Largest TIjAb Amplitudes:
      3   2  27  28        -0.0279029042
      1   1   9   9        -0.0262690449
      3   2  30  31        -0.0254474100
      1   1  30  31        -0.0241199070
      3   2  27  31        -0.0223628784
      1   1   4   4        -0.0217895694
      3   2  30  28        -0.0213240973
      2   0   6  19         0.0212973447
      2   1  22   9        -0.0206594594
      2   0   6  20         0.0200444229

    SCF energy       (wfn)                    =  -55.575118960539427
    Reference energy (file100)                =  -55.575118960539342

    Opposite-spin MP2 correlation energy      =   -0.118637558433409
    Same-spin MP2 correlation energy          =   -0.034586307739822
    Singles MP2 correlation energy            =   -0.000000000000000
    MP2 correlation energy                    =   -0.153223866173231
      * MP2 total energy                      =  -55.728342826712570

    Opposite-spin CCSD correlation energy     =   -0.139319847625786
    Same-spin CCSD correlation energy         =   -0.033295653254986
    Singles CCSD correlation energy           =   -0.000000000000000
    CCSD correlation energy                   =   -0.172615500880772
      * CCSD total energy                     =  -55.747734461420116

            **************************
            *                        *
            *        CCTRIPLES       *
            *                        *
            **************************

    Wave function   =    CCSD_T
    Reference wfn   =      UHF

    Nuclear Rep. energy (wfn)                =    7.576170017890134
    SCF energy          (wfn)                =  -55.575118960539427

      * CCSD(T) total energy                     =  -55.751630532559815
*** Psi4 exiting successfully. Buy a developer a beer!
