                               Psi4 1.4a3.dev88

  ==> Input File <==

--------------------------------------------------------------------------
# Any line starting with the # character is a comment line
memory 250000 mb
molecule molecule{
1 2
S          0.0000000000        0.0000000000       -0.0550235194
H          0.0000000000        0.9811489408        0.8750788892
H          0.0000000000       -0.9811489408        0.8750788892
}

set {
  reference uhf
  basis aug-cc-pV(t+d)Z
  scf_type OUT_OF_CORE
  freeze_core true
}

energy('ccsd(t)')
--------------------------------------------------------------------------

    Molecular point group: c2v

    Geometry (in Angstrom), charge = 1, multiplicity = 2:

       Center              X                  Y                   Z               Mass
    ------------   -----------------  -----------------  -----------------  -----------------
         S            0.000000000000     0.000000000000    -0.055159949285    31.972071174400
         H           -0.000000000000     0.981148940800     0.874942459315     1.007825032230
         H            0.000000000000    -0.981148940800     0.874942459315     1.007825032230

  Charge       = 1
  Multiplicity = 2
  Basis Set: AUG-CC-PV(T+D)Z
    Blend: AUG-CC-PV(T+D)Z

    Orbital Energies [Eh]
    ---------------------

    Alpha Occupied:

       1A1   -92.366300     2A1    -9.363414     1B1    -7.059604
       1B2    -7.040167     3A1    -7.038574     4A1    -1.364175
       2B2    -0.920842     5A1    -0.842520     2B1    -0.806976

    Alpha Virtual:

       6A1    -0.143649     3B2    -0.131684     4B2    -0.084681
       7A1    -0.073548     3B1    -0.071232     8A1    -0.062876
       9A1    -0.017563    10A1    -0.012431     1A2    -0.012419
       5B2    -0.010846     4B1    -0.006544     6B2     0.099719
      11A1     0.123169     5B1     0.148983     7B2     0.149790
      12A1     0.158006     2A2     0.158671    13A1     0.183668
       8B2     0.203257    14A1     0.289056     6B1     0.295267
       9B2     0.305959    15A1     0.339885     3A2     0.367399
       7B1     0.381058    16A1     0.402375     8B1     0.509127
      17A1     0.526843    10B2     0.544456    11B2     0.592092
      18A1     0.612231    12B2     0.616843     4A2     0.616916
       9B1     0.633627    19A1     0.696522    20A1     0.738980
      13B2     0.754333     5A2     0.795475    10B1     0.816175
      14B2     0.822784    21A1     0.825710     6A2     0.861863
      11B1     0.893943    22A1     0.947271    15B2     1.003289
      16B2     1.045797    23A1     1.289446    12B1     1.294864
      17B2     1.328495     7A2     1.340523    24A1     1.369297
      25A1     1.420074    18B2     1.529225    13B1     1.614397
       8A2     1.618519    26A1     1.696214    27A1     1.814811
      19B2     1.880675    14B1     1.978559    15B1     2.006508
      28A1     2.052203    20B2     2.065522     9A2     2.192140
      21B2     2.251936    29A1     2.294468    16B1     2.305955
      30A1     2.506580    22B2     2.747152    31A1     3.128491
      23B2     3.211618    10A2     3.572762    32A1     3.639937
      24B2     3.652452    17B1     3.689519    25B2     3.912285
      18B1     3.963194    11A2     3.998809    33A1     4.063677
      19B1     4.123901    12A2     4.184709    26B2     4.239859
      34A1     4.258531    35A1     4.366333    27B2     4.418468
      36A1     4.631582    28B2     5.026981    37A1     6.467016
      20B1     7.018576    13A2     7.031411    38A1     7.126911
      29B2     8.079117    39A1     8.119013

    Beta Occupied:

       1A1   -92.355829     2A1    -9.351798     3A1    -7.033246
       1B2    -7.033182     1B1    -7.014361     4A1    -1.270921
       2B2    -0.910458     5A1    -0.819714

    Beta Virtual:

       2B1    -0.298917     6A1    -0.136002     3B2    -0.127615
       4B2    -0.084373     7A1    -0.069031     3B1    -0.056253
       8A1    -0.039836     9A1    -0.016198     5B2    -0.009313
      10A1     0.003076     1A2     0.014982     4B1     0.020177
       6B2     0.099631    11A1     0.136782     7B2     0.149799
      12A1     0.159513     5B1     0.165669     2A2     0.167551
      13A1     0.192234     8B2     0.206384    14A1     0.301892
       9B2     0.309928     6B1     0.343841    15A1     0.355613
      16A1     0.411425     3A2     0.413921     7B1     0.426188
       8B1     0.518337    10B2     0.549809    17A1     0.554817
      11B2     0.597536    12B2     0.619864    18A1     0.623241
       4A2     0.628629     9B1     0.652013    19A1     0.701132
      20A1     0.743781    13B2     0.754712     5A2     0.798388
      10B1     0.822361    14B2     0.828427    21A1     0.836728
       6A2     0.868756    11B1     0.901897    22A1     0.948348
      15B2     1.008518    16B2     1.047025    23A1     1.303110
      12B1     1.317883    17B2     1.327761     7A2     1.353625
      24A1     1.374650    25A1     1.446192    18B2     1.536987
      13B1     1.643139     8A2     1.645912    26A1     1.703800
      27A1     1.828690    19B2     1.892131    14B1     2.024952
      15B1     2.040802    28A1     2.081480    20B2     2.090062
       9A2     2.216605    21B2     2.255787    29A1     2.297827
      16B1     2.355170    30A1     2.513595    22B2     2.753136
      31A1     3.129488    23B2     3.215740    10A2     3.572881
      32A1     3.640091    24B2     3.652925    17B1     3.690884
      25B2     3.911317    18B1     3.968412    11A2     4.003893
      33A1     4.061290    19B1     4.123625    12A2     4.184190
      26B2     4.237158    34A1     4.257296    35A1     4.367501
      27B2     4.417573    36A1     4.634339    28B2     5.026794
      37A1     6.488255    20B1     7.030554    13A2     7.043871
      38A1     7.129171    29B2     8.083412    39A1     8.128509

    Final Occupation by Irrep:
             A1    A2    B1    B2
    DOCC [     5,    0,    1,    2 ]
    SOCC [     0,    0,    1,    0 ]

  @UHF Final Energy:  -398.37754844003177

   => Energetics <=

    Nuclear Repulsion Energy =             12.7951257170376476
    One-Electron Energy =                -569.7532708743540297
    Two-Electron Energy =                 158.5805967172846067
    Total Energy =                       -398.3775484400317737

  UHF NO Occupations:
  HONO-2 :    2 B2 1.9991890
  HONO-1 :    5 A1 1.9930485
  HONO-0 :    2 B1 1.0000000
  LUNO+0 :    6 A1 0.0069515
  LUNO+1 :    3 B2 0.0008110
  LUNO+2 :    7 A1 0.0004709
  LUNO+3 :    3 B1 0.0000033

Computation Completed

Properties will be evaluated at   0.000000,   0.000000,   0.000000 [a0]

Properties computed using the SCF density matrix

  Nuclear Dipole Moment: [e a0]
     X:     0.0000      Y:     0.0000      Z:     1.6390

  Electronic Dipole Moment: [e a0]
     X:     0.0000      Y:     0.0000      Z:    -0.9860

  Dipole Moment: [e a0]
     X:     0.0000      Y:     0.0000      Z:     0.6530     Total:     0.6530

  Dipole Moment: [D]
     X:     0.0000      Y:     0.0000      Z:     1.6598     Total:     1.6598

*** tstop() called on n412-040.vsc4.prov at Tue Jan 26 18:34:21 2021
Module time:
	user time   =      36.79 seconds =       0.61 minutes
	system time =       2.68 seconds =       0.04 minutes
	total time  =          8 seconds =       0.13 minutes
Total time:
	user time   =      36.79 seconds =       0.61 minutes
	system time =       2.68 seconds =       0.04 minutes
	total time  =          8 seconds =       0.13 minutes

*** tstart() called on n412-040.vsc4.prov
*** at Tue Jan 26 18:34:21 2021

	Wfn Parameters:
	--------------------
	Wavefunction         = CCSD_T
	Number of irreps     = 4
	Number of MOs        = 101
	Number of active MOs = 96
	AO-Basis             = NONE
	Semicanonical        = false
	Reference            = UHF
	Print Level          = 1

	IRREP	# MOs	# FZDC	# DOCC	# SOCC	# VIRT	# FZVR
	-----	-----	------	------	------	------	------
	 A1	   39	    3	    2	    0	    34	    0
	 A2	   13	    0	    0	    0	    13	    0
	 B1	   20	    1	    0	    1	    18	    0
	 B2	   29	    1	    1	    0	    27	    0
	Transforming integrals...
	IWL integrals will be deleted.
	(OO|OO)...
	Presorting SO-basis two-electron integrals.
	Sorting File: SO Ints (nn|nn) nbuckets = 1
	Constructing frozen core operators
	Starting AA/AB first half-transformation.
	Sorting AA/AB half-transformed integrals.
	Starting BB first half-transformation.
	Sorting BB half-transformed integrals.
	First half integral transformation complete.
	Starting AA second half-transformation.
	Starting AB second half-transformation.
	Starting BB second half-transformation.
	Two-electron integral transformation complete.
	(OO|OV)...
	Starting AA second half-transformation.
	Starting AB second half-transformation.
	Starting BB second half-transformation.
	Two-electron integral transformation complete.
	(OO|VV)...
	Starting AA second half-transformation.
	Starting AB second half-transformation.
	Starting BB second half-transformation.
	Two-electron integral transformation complete.
	(OV|OO)...
	Starting AA/AB first half-transformation.
	Sorting AA/AB half-transformed integrals.
	Starting BB first half-transformation.
	Sorting BB half-transformed integrals.
	First half integral transformation complete.
	Starting AA second half-transformation.
	Starting AB second half-transformation.
	Starting BB second half-transformation.
	Two-electron integral transformation complete.
	(OV|OV)...
	Starting AA second half-transformation.
	Starting AB second half-transformation.
	Starting BB second half-transformation.
	Two-electron integral transformation complete.
	(OV|VV)...
	Starting AA second half-transformation.
	Starting AB second half-transformation.
	Starting BB second half-transformation.
	Two-electron integral transformation complete.
	(VV|OO)...
	Starting AA/AB first half-transformation.
	Sorting AA/AB half-transformed integrals.
	Starting BB first half-transformation.
	Sorting BB half-transformed integrals.
	First half integral transformation complete.
	Starting AA second half-transformation.
	Starting AB second half-transformation.
	Starting BB second half-transformation.
	Two-electron integral transformation complete.
	(VV|OV)...
	Starting AA second half-transformation.
	Starting AB second half-transformation.
	Starting BB second half-transformation.
	Two-electron integral transformation complete.
	(VV|VV)...
	Starting AA second half-transformation.
	Starting AB second half-transformation.
	Starting BB second half-transformation.
	Two-electron integral transformation complete.
	Frozen core energy     =   -395.37968541418888

	Size of irrep 0 of <AB|CD> integrals:      1.306 (MW) /     10.452 (MB)
	Size of irrep 1 of <AB|CD> integrals:      0.861 (MW) /      6.889 (MB)
	Size of irrep 2 of <AB|CD> integrals:      0.927 (MW) /      7.419 (MB)
	Size of irrep 3 of <AB|CD> integrals:      1.327 (MW) /     10.617 (MB)
	Total:                                     4.422 (MW) /     35.377 (MB)

	Size of irrep 0 of <ab|cd> integrals:      1.348 (MW) /     10.783 (MB)
	Size of irrep 1 of <ab|cd> integrals:      0.912 (MW) /      7.296 (MB)
	Size of irrep 2 of <ab|cd> integrals:      0.994 (MW) /      7.952 (MB)
	Size of irrep 3 of <ab|cd> integrals:      1.357 (MW) /     10.858 (MB)
	Total:                                     4.611 (MW) /     36.889 (MB)

	Size of irrep 0 of <Ab|Cd> integrals:      5.741 (MW) /     45.927 (MB)
	Size of irrep 1 of <Ab|Cd> integrals:      3.546 (MW) /     28.366 (MB)
	Size of irrep 2 of <Ab|Cd> integrals:      3.842 (MW) /     30.733 (MB)
	Size of irrep 3 of <Ab|Cd> integrals:      5.368 (MW) /     42.948 (MB)
	Total:                                    18.497 (MW) /    147.973 (MB)

	Size of irrep 0 of <IA|BC> integrals:      0.269 (MW) /      2.150 (MB)
	Size of irrep 1 of <IA|BC> integrals:      0.132 (MW) /      1.054 (MB)
	Size of irrep 2 of <IA|BC> integrals:      0.160 (MW) /      1.279 (MB)
	Size of irrep 3 of <IA|BC> integrals:      0.233 (MW) /      1.862 (MB)
	Total:                                     0.793 (MW) /      6.344 (MB)

	Size of irrep 0 of <ia|bc> integrals:      0.229 (MW) /      1.835 (MB)
	Size of irrep 1 of <ia|bc> integrals:      0.086 (MW) /      0.688 (MB)
	Size of irrep 2 of <ia|bc> integrals:      0.102 (MW) /      0.814 (MB)
	Size of irrep 3 of <ia|bc> integrals:      0.205 (MW) /      1.640 (MB)
	Total:                                     0.622 (MW) /      4.977 (MB)

	Size of irrep 0 of <Ia|Bc> integrals:      0.273 (MW) /      2.185 (MB)
	Size of irrep 1 of <Ia|Bc> integrals:      0.136 (MW) /      1.085 (MB)
	Size of irrep 2 of <Ia|Bc> integrals:      0.167 (MW) /      1.333 (MB)
	Size of irrep 3 of <Ia|Bc> integrals:      0.234 (MW) /      1.872 (MB)
	Total:                                     0.809 (MW) /      6.475 (MB)

	Size of irrep 0 of <iA|bC> integrals:      0.228 (MW) /      1.821 (MB)
	Size of irrep 1 of <iA|bC> integrals:      0.083 (MW) /      0.663 (MB)
	Size of irrep 2 of <iA|bC> integrals:      0.096 (MW) /      0.768 (MB)
	Size of irrep 3 of <iA|bC> integrals:      0.204 (MW) /      1.631 (MB)
	Total:                                     0.610 (MW) /      4.883 (MB)

	Size of irrep 0 of tIjAb amplitudes:       0.012 (MW) /      0.096 (MB)
	Size of irrep 1 of tIjAb amplitudes:       0.002 (MW) /      0.015 (MB)
	Size of irrep 2 of tIjAb amplitudes:       0.004 (MW) /      0.031 (MB)
	Size of irrep 3 of tIjAb amplitudes:       0.009 (MW) /      0.074 (MB)
	Total:                                     0.027 (MW) /      0.216 (MB)

	Nuclear Rep. energy          =     12.79512571703765
	SCF energy                   =   -398.37754844003177
	One-electron energy          =    -24.65037350227922
	Two-electron (AA) energy     =      2.27945252313026
	Two-electron (BB) energy     =      1.07390695337701
	Two-electron (AB) energy     =      5.50402528289001
	Two-electron energy          =      8.85738475939729
	Reference energy             =   -398.37754844003314

*** tstop() called on n412-040.vsc4.prov at Tue Jan 26 18:34:33 2021
Module time:
	user time   =       2.68 seconds =       0.04 minutes
	system time =       2.20 seconds =       0.04 minutes
	total time  =         12 seconds =       0.20 minutes
Total time:
	user time   =      39.47 seconds =       0.66 minutes
	system time =       4.88 seconds =       0.08 minutes
	total time  =         20 seconds =       0.33 minutes
            **************************
            *                        *
            *        CCENERGY        *
            *                        *
            **************************

    Nuclear Rep. energy (wfn)     =   12.795125717037648
    SCF energy          (wfn)     = -398.377548440031774
    Reference energy    (file100) = -398.377548440033138

    Input parameters:
    -----------------
    Wave function   =     CCSD_T
    Reference wfn   =     UHF
    Brueckner       =     No
    Memory (Mbytes) =     250000.0
    Maxiter         =     50
    R_Convergence   =     1.0e-07
    E_Convergence   =     1.0e-06
    Restart         =     Yes
    DIIS            =     Yes
    AO Basis        =     NONE
    ABCD            =     NEW
    Cache Level     =     2
    Cache Type      =     LRU
    Print Level     =     1
    Num. of threads =     48
    # Amps to Print =     10
    Print MP2 Amps? =     No
    Analyze T2 Amps =     No
    Print Pair Ener =     No
    Local CC        =     No
    SCS-MP2         =     False
    SCSN-MP2        =     False
    SCS-CCSD        =     False

MP2 correlation energy -0.1516159127693565
                Solving CC Amplitude Equations
                ------------------------------
  Iter             Energy              RMS        T1Diag      D1Diag    New D1Diag    D2Diag
  ----     ---------------------    ---------   ----------  ----------  ----------   --------
     0        -0.151615912769357    0.000e+00    0.000000    0.000000    0.000000    0.000000
     1        -0.171207408566038    5.085e-02    0.009682    0.000000    0.000000    0.000000
     2        -0.178458843166580    1.905e-02    0.015399    0.000000    0.000000    0.000000
     3        -0.178825668095544    5.033e-03    0.017360    0.000000    0.000000    0.000000
     4        -0.178834643920835    1.484e-03    0.017833    0.000000    0.000000    0.000000
     5        -0.178823646285863    5.092e-04    0.017944    0.000000    0.000000    0.000000
     6        -0.178825772986633    1.489e-04    0.017954    0.000000    0.000000    0.000000
     7        -0.178827092104837    4.744e-05    0.017950    0.000000    0.000000    0.000000
     8        -0.178827307028052    1.640e-05    0.017948    0.000000    0.000000    0.000000
     9        -0.178827249070034    5.443e-06    0.017947    0.000000    0.000000    0.000000
    10        -0.178827282394435    2.072e-06    0.017947    0.000000    0.000000    0.000000
    11        -0.178827281767760    7.068e-07    0.017947    0.000000    0.000000    0.000000
    12        -0.178827286885305    2.389e-07    0.017947    0.000000    0.000000    0.000000
    13        -0.178827284453086    7.098e-08    0.017947    0.000000    0.000000    0.000000

    Iterations converged.

    Largest TIA Amplitudes:
              2  48        -0.0112856030
              1   2        -0.0101896193
              1  11         0.0092277403
              3  65         0.0087973452
              1   9        -0.0070379362
              3  72         0.0065008705
              1   1        -0.0064064965
              2  51         0.0055374962
              1   5        -0.0051711893
              1   3         0.0051357525

    Largest Tia Amplitudes:
              2  66        -0.0153347896
              0   2        -0.0135467400
              1   3         0.0116500799
              0   0        -0.0088040260
              1   4        -0.0087988726
              0   4         0.0087250049
              0   9        -0.0076356795
              1   6        -0.0070982063
              0   7         0.0070625356
              1  10        -0.0068370124

    Largest TIJAB Amplitudes:
      3   1  65   3         0.0193074852
      2   1  65  34        -0.0163605029
      3   2  65  48        -0.0143718594
      3   2  34   2         0.0142653683
      3   1  65  10        -0.0137104417
      2   1  65  36        -0.0135251465
      2   1  48   2         0.0132721889
      3   2  34   1         0.0131945660
      2   1  48   4        -0.0130845839
      3   2  36   2         0.0119644708

    Largest Tijab Amplitudes:
      2   1  66   3        -0.0190091981
      2   1  66   8        -0.0129931833
      2   1  66  10         0.0128091775
      1   0  52  47         0.0109633590
      1   0  49  47        -0.0106414095
      2   0  47  36        -0.0097970976
      2   0  47  34        -0.0089080870
      2   1  66   6         0.0082953242
      2   1  66   2         0.0077659991
      2   1  66   1         0.0072225506

    Largest TIjAb Amplitudes:
      1   1  65  66         0.0518127710

      * MP2 total energy                      = -398.529164352802468
      * CCSD total energy                     = -398.556375724486202
      * CCSD(T) total energy                     = -398.562374753582844
*** Psi4 exiting successfully. Buy a developer a beer!
