                               Psi4 1.4a3.dev88

  ==> Input File <==

--------------------------------------------------------------------------
# Any line starting with the # character is a comment line
memory 250000 mb
molecule molecule{
1 2
S          0.0000000000        0.0000000000       -0.0550235194
H          0.0000000000        0.9811489408        0.8750788892
H          0.0000000000       -0.9811489408        0.8750788892
}

set {
  reference uhf
  basis aug-cc-pV(6+d)Z
  scf_type OUT_OF_CORE
  freeze_core true
}

energy('ccsd(t)')
--------------------------------------------------------------------------

    Molecular point group: c2v

    Geometry (in Angstrom), charge = 1, multiplicity = 2:

       Center              X                  Y                   Z               Mass
    ------------   -----------------  -----------------  -----------------  -----------------
         S            0.000000000000     0.000000000000    -0.055159949285    31.972071174400
         H           -0.000000000000     0.981148940800     0.874942459315     1.007825032230
         H            0.000000000000    -0.981148940800     0.874942459315     1.007825032230

  Charge       = 1
  Multiplicity = 2
  Basis Set: AUG-CC-PV(6+D)Z
    Blend: AUG-CC-PV(6+D)Z

    Orbital Energies [Eh]
    ---------------------

    Alpha Occupied:

       1A1   -92.365127     2A1    -9.362742     1B1    -7.059974
       1B2    -7.039937     3A1    -7.038515     4A1    -1.363914
       2B2    -0.920791     5A1    -0.842607     2B1    -0.807213

    Alpha Virtual:

       6A1    -0.143761     3B2    -0.132749     4B2    -0.087503
       7A1    -0.082331     3B1    -0.080841     8A1    -0.075393
       9A1    -0.042046     1A2    -0.040479    10A1    -0.038767
       4B1    -0.036023     5B2    -0.031559     6B2     0.016468
      11A1     0.035275     5B1     0.051891    12A1     0.055152
       7B2     0.056616     2A2     0.062533    13A1     0.065139
       8B2     0.076026     9B2     0.093420    14A1     0.096842
       6B1     0.098463    15A1     0.119343    16A1     0.136506
       3A2     0.138349     7B1     0.140953     8B1     0.198015
      10B2     0.225547    17A1     0.264752    18A1     0.270377
      11B2     0.274393    12B2     0.286023    19A1     0.301975
       9B1     0.302639     4A2     0.303181    13B2     0.312951
       5A2     0.314041    10B1     0.323175    20A1     0.323571
       6A2     0.337894    14B2     0.345322    11B1     0.354912
      21A1     0.361140    22A1     0.376451    15B2     0.388017
      23A1     0.394740    16B2     0.420618    24A1     0.546680
      12B1     0.585628    17B2     0.597508    25A1     0.633410
       7A2     0.637642    13B1     0.652328    18B2     0.686752
      26A1     0.687565    27A1     0.722907    14B1     0.731085
       8A2     0.732433    28A1     0.746189    15B1     0.757644
      19B2     0.765627    29A1     0.766297    16B1     0.771392
       9A2     0.773107    30A1     0.782446    10A2     0.785259
      20B2     0.789178    21B2     0.822497    31A1     0.831616
      17B1     0.856185    22B2     0.863613    18B1     0.901480
      11A2     0.918065    32A1     0.920485    23B2     0.922876
      12A2     0.939624    19B1     0.956943    24B2     0.959717
      33A1     0.980006    34A1     0.996627    35A1     1.013878
      25B2     1.027955    20B1     1.032675    26B2     1.052869
      36A1     1.076262    13A2     1.150641    27B2     1.164038
      37A1     1.232883    21B1     1.235169    28B2     1.253507
      38A1     1.255392    14A2     1.268314    29B2     1.363588
      39A1     1.475032    22B1     1.611726    30B2     1.615133
      40A1     1.618132    15A2     1.631081    23B1     1.665161
      41A1     1.678224    16A2     1.690411    24B1     1.717194
      42A1     1.730705    31B2     1.738185    17A2     1.756262
      43A1     1.769409    32B2     1.776373    25B1     1.855101
      44A1     1.862402    33B2     1.865844    45A1     1.877454
      18A2     1.884404    26B1     1.904654    34B2     1.906019
      19A2     1.915533    46A1     1.937185    27B1     1.945886
      47A1     1.972851    35B2     1.985603    28B1     1.996953
      48A1     1.998714    36B2     2.029155    49A1     2.051408
      20A2     2.057428    29B1     2.068851    30B1     2.112124
      37B2     2.116587    50A1     2.119443    38B2     2.165046
      31B1     2.170896    21A2     2.175462    51A1     2.233445
      39B2     2.280342    52A1     2.280876    32B1     2.295235
      22A2     2.306888    40B2     2.310672    33B1     2.343495
      53A1     2.350874    41B2     2.372776    54A1     2.417339
      42B2     2.429742    34B1     2.445133    23A2     2.453537
      43B2     2.464396    24A2     2.468684    55A1     2.498372
      44B2     2.543685    35B1     2.544449    56A1     2.547351
      25A2     2.557779    57A1     2.563643    45B2     2.611817
      36B1     2.619030    26A2     2.698866    46B2     2.770717
      58A1     2.816072    59A1     2.969722    47B2     3.027728
      27A2     3.160681    60A1     3.175367    48B2     3.213570
      37B1     3.230984    61A1     3.376238    28A2     3.434551
      38B1     3.511184    62A1     3.574745    49B2     3.606201
      50B2     3.636481    39B1     3.682418    29A2     3.747715
      63A1     3.773129    40B1     3.798485    51B2     3.811555
      30A2     3.812860    64A1     3.891556    52B2     3.922154
      65A1     3.974000    66A1     3.994849    31A2     4.002756
      41B1     4.003503    42B1     4.049895    67A1     4.070500
      32A2     4.081450    53B2     4.090359    43B1     4.131641
      68A1     4.142534    54B2     4.182742    69A1     4.183844
      44B1     4.207499    55B2     4.215656    70A1     4.218613
      33A2     4.253699    71A1     4.258480    72A1     4.298388
      34A2     4.304756    56B2     4.311237    45B1     4.314640
      46B1     4.377059    73A1     4.406520    35A2     4.433957
      57B2     4.440311    47B1     4.445520    48B1     4.483977
      36A2     4.489299    74A1     4.493711    58B2     4.499769
      75A1     4.515116    59B2     4.542875    60B2     4.554989
      49B1     4.562415    76A1     4.625933    37A2     4.734343
      61B2     4.746023    50B1     4.751036    38A2     4.771695
      39A2     4.782385    77A1     4.803117    62B2     4.833389
      78A1     4.855659    79A1     4.889862    63B2     4.919963
      64B2     4.950065    80A1     4.963162    51B1     4.998505
      52B1     5.033069    53B1     5.103906    81A1     5.105385
      65B2     5.112270    40A2     5.136925    66B2     5.148607
      54B1     5.203342    41A2     5.207195    82A1     5.230922
      83A1     5.269967    55B1     5.297349    42A2     5.303640
      56B1     5.394494    84A1     5.399187    67B2     5.475599
      68B2     5.488156    69B2     5.519475    43A2     5.654982
      70B2     5.665657    85A1     5.734965    86A1     5.805306
      44A2     5.875427    87A1     5.890349    71B2     5.967519
      45A2     5.972708    57B1     6.012404    88A1     6.106673
      46A2     6.131329    72B2     6.147332    58B1     6.180967
      73B2     6.289120    89A1     6.554231    59B1     6.623191
      74B2     6.779848    90A1     6.795751    47A2     6.854032
      91A1     6.956526    75B2     7.029558    48A2     7.234250
      60B1     7.325569    76B2     7.356789    61B1     7.375793
      92A1     7.404992    77B2     7.726487    49A2     7.732061
      93A1     7.761309    62B1     7.890753    50A2     7.915985
      63B1     7.980405    78B2     7.985054    79B2     8.035353
      94A1     8.050090    95A1     8.054493    51A2     8.063935
      64B1     8.201881    80B2     8.241261    96A1     8.250763
      97A1     8.365683    81B2     8.447219    98A1     8.469217
      52A2     8.530645    65B1     8.542111    82B2     8.554542
      99A1     8.649585   100A1     8.863157    53A2     8.865483
      66B1     8.884984   101A1     9.036089    67B1     9.077008
      54A2     9.091534   102A1     9.092931    68B1     9.114866
      83B2     9.115248    84B2     9.134161   103A1     9.139060
      85B2     9.222329   104A1     9.222640    55A2     9.257959
      69B1     9.266248    70B1     9.297985    56A2     9.354686
     105A1     9.383781    86B2     9.413903   106A1     9.439352
      57A2     9.457927    87B2     9.520950    71B1     9.540518
      88B2     9.650457    72B1     9.683463    58A2     9.722453
     107A1     9.762465   108A1     9.895109    59A2     9.976524
      73B1     9.978561    89B2    10.039328    74B1    10.144080
     109A1    10.156304    90B2    10.159188    91B2    10.215464
     110A1    10.271242   111A1    10.409944    92B2    10.444558
      60A2    10.572245    75B1    10.686222   112A1    10.732053
      93B2    10.736492    61A2    10.760860    76B1    10.809263
     113A1    10.926192    94B2    10.937093    95B2    11.015876
     114A1    11.026525    62A2    11.104865    96B2    11.163453
      77B1    11.180214    78B1    11.298054    63A2    11.301586
     115A1    11.374982    79B1    11.414167    64A2    11.500012
      97B2    11.512651   116A1    11.538510   117A1    11.762084
      98B2    12.504376   118A1    12.616843    80B1    12.628802
      65A2    12.777278    99B2    12.885781   119A1    13.207768
      81B1    13.410932   100B2    13.512702    66A2    13.625388
     120A1    13.883828   101B2    13.890349   121A1    14.713582
     102B2    16.206280   122A1    16.316053    82B1    17.186175
     123A1    17.198251   103B2    17.232833    67A2    17.247964
      83B1    17.305479    68A2    17.375588   124A1    17.387544
     104B2    17.405595    69A2    17.518144   105B2    17.546230
      84B1    17.568766   125A1    17.650247   126A1    17.911676
      85B1    17.988609    70A2    18.205201   106B2    18.270058
     107B2    18.736289    86B1    18.784516    71A2    18.785563
     127A1    18.821114   108B2    19.023612   128A1    19.052256
      87B1    20.048577    72A2    20.059288   129A1    20.076217
     109B2    20.095413    73A2    20.352514   110B2    20.564191
     130A1    20.659363    88B1    20.754062    89B1    21.169370
     111B2    21.188983    90B1    21.193535    74A2    21.237639
     131A1    21.302919    75A2    21.303172   112B2    21.323929
     132A1    21.392634   113B2    21.634426   133A1    21.659251
     134A1    22.500593    91B1    22.883038    76A2    22.903836
     114B2    22.960735   115B2    23.021766   135A1    23.157153
     136A1    23.787677    77A2    23.859917    92B1    23.878392
     116B2    23.987783   137A1    24.197911    93B1    24.225290
     138A1    24.241757   117B2    24.266114    78A2    24.269827
      94B1    24.312329    79A2    24.355587   118B2    24.478265
     119B2    24.530079   139A1    24.579952    95B1    24.905653
      80A2    24.959583   140A1    25.194830   120B2    25.207558
     121B2    25.292361   141A1    25.302909    96B1    30.460465
     142A1    30.887831    81A2    30.925669   143A1    31.134982
      97B1    31.284491   122B2    32.166599   144A1    34.376164
      98B1    34.439203    82A2    34.454599   145A1    34.715788
     123B2    34.761231   124B2    35.737129   146A1    36.981469
     125B2    37.051084   147A1   248.870508

    Beta Occupied:

       1A1   -92.353811     2A1    -9.351183     3A1    -7.033015
       1B2    -7.032697     1B1    -7.013110     4A1    -1.270666
       2B2    -0.910580     5A1    -0.819887

    Beta Virtual:

       2B1    -0.298604     6A1    -0.136083     3B2    -0.128849
       4B2    -0.087148     7A1    -0.079667     3B1    -0.070300
       8A1    -0.056818     9A1    -0.041183     5B2    -0.030635
      10A1    -0.030519     1A2    -0.025275     4B1    -0.021849
       6B2     0.016491    11A1     0.042857     7B2     0.056541
      12A1     0.057032     5B1     0.061678     2A2     0.064665
      13A1     0.073843     8B2     0.077300     9B2     0.094733
      14A1     0.098566     6B1     0.117018    15A1     0.132181
      16A1     0.140715     7B1     0.170071     3A2     0.170905
       8B1     0.203199    10B2     0.226904    17A1     0.270763
      11B2     0.276089    18A1     0.278560    12B2     0.285999
       4A2     0.308832     9B1     0.309096    19A1     0.311400
      13B2     0.313157     5A2     0.315380    10B1     0.327471
      20A1     0.328308     6A2     0.347427    14B2     0.347877
      21A1     0.363329    11B1     0.364117    22A1     0.381463
      15B2     0.389359    23A1     0.404243    16B2     0.421268
      24A1     0.548390    17B2     0.600281    12B1     0.631119
      25A1     0.636502     7A2     0.651118    13B1     0.668059
      18B2     0.686908    26A1     0.696683    27A1     0.734648
      14B1     0.738880     8A2     0.740581    28A1     0.749320
      15B1     0.763178    19B2     0.768196    29A1     0.773597
       9A2     0.781213    16B1     0.788416    20B2     0.790878
      30A1     0.793084    10A2     0.800654    21B2     0.831882
      31A1     0.838068    17B1     0.865097    22B2     0.867962
      18B1     0.905343    11A2     0.918399    32A1     0.920893
      23B2     0.923579    12A2     0.942506    19B1     0.961739
      24B2     0.961757    33A1     0.993588    34A1     0.999878
      35A1     1.021255    25B2     1.028139    20B1     1.038783
      26B2     1.054458    36A1     1.078058    13A2     1.151531
      27B2     1.164451    37A1     1.238937    21B1     1.249371
      38A1     1.257426    28B2     1.257787    14A2     1.277413
      29B2     1.367871    39A1     1.479929    30B2     1.616115
      22B1     1.618369    40A1     1.623583    15A2     1.637168
      23B1     1.677937    41A1     1.682441    16A2     1.698881
      24B1     1.734776    42A1     1.736841    31B2     1.744924
      17A2     1.770465    43A1     1.774919    32B2     1.777518
      25B1     1.862210    44A1     1.869194    33B2     1.870302
      45A1     1.886143    18A2     1.890220    34B2     1.909513
      26B1     1.911464    19A2     1.919875    46A1     1.949156
      27B1     1.959241    47A1     1.979662    35B2     1.987402
      28B1     2.000960    48A1     2.002930    36B2     2.033188
      49A1     2.058644    20A2     2.065180    29B1     2.083730
      50A1     2.122963    37B2     2.123235    30B1     2.144437
      38B2     2.168422    31B1     2.176007    21A2     2.176459
      51A1     2.234887    39B2     2.281517    52A1     2.291238
      32B1     2.304263    22A2     2.307209    40B2     2.313104
      33B1     2.347013    53A1     2.363963    41B2     2.383051
      54A1     2.420105    42B2     2.435532    34B1     2.461127
      23A2     2.464282    43B2     2.465276    24A2     2.473706
      55A1     2.502115    44B2     2.549115    35B1     2.550876
      56A1     2.551846    25A2     2.562197    57A1     2.564074
      45B2     2.612926    36B1     2.623928    26A2     2.702170
      46B2     2.773651    58A1     2.816325    59A1     2.972033
      47B2     3.028047    27A2     3.171986    60A1     3.178279
      48B2     3.215133    37B1     3.250337    61A1     3.380910
      28A2     3.438786    38B1     3.515268    62A1     3.584788
      49B2     3.611976    50B2     3.638179    39B1     3.690034
      29A2     3.752471    63A1     3.779517    40B1     3.808903
      51B2     3.813505    30A2     3.823006    64A1     3.902207
      52B2     3.922887    65A1     3.980810    66A1     4.002806
      31A2     4.013766    41B1     4.016561    42B1     4.056867
      67A1     4.079091    32A2     4.090229    53B2     4.099146
      43B1     4.143222    68A1     4.149739    69A1     4.191852
      54B2     4.192961    44B1     4.211738    55B2     4.223273
      70A1     4.224029    33A2     4.262310    71A1     4.263869
      72A1     4.305585    34A2     4.308078    56B2     4.311946
      45B1     4.324894    46B1     4.383679    73A1     4.410798
      35A2     4.439945    57B2     4.446465    47B1     4.454198
      48B1     4.492568    36A2     4.495058    74A1     4.498773
      58B2     4.505094    75A1     4.523720    59B2     4.549592
      60B2     4.559326    49B1     4.567888    76A1     4.632825
      37A2     4.740787    61B2     4.749879    50B1     4.770093
      38A2     4.775763    39A2     4.792018    77A1     4.804931
      62B2     4.837891    78A1     4.862516    79A1     4.897503
      63B2     4.921607    64B2     4.956603    80A1     4.969095
      51B1     5.003314    52B1     5.036072    81A1     5.107469
      53B1     5.108682    65B2     5.113699    40A2     5.139658
      66B2     5.150682    54B1     5.207555    41A2     5.209557
      82A1     5.235203    83A1     5.272628    55B1     5.304537
      42A2     5.304628    84A1     5.402690    56B1     5.406260
      67B2     5.476361    68B2     5.488958    69B2     5.520814
      43A2     5.657034    70B2     5.670972    85A1     5.736193
      86A1     5.807064    44A2     5.881199    87A1     5.897485
      71B2     5.968143    45A2     5.980068    57B1     6.019414
      88A1     6.113014    46A2     6.139390    72B2     6.148955
      58B1     6.189478    73B2     6.294607    89A1     6.555968
      59B1     6.635055    74B2     6.781274    90A1     6.799453
      47A2     6.861754    91A1     6.959626    75B2     7.030325
      48A2     7.235741    60B1     7.328696    76B2     7.357409
      61B1     7.394285    92A1     7.405857    77B2     7.729174
      49A2     7.734750    93A1     7.765277    62B1     7.897333
      50A2     7.923223    63B1     7.987804    78B2     7.989004
      79B2     8.038572    94A1     8.053839    95A1     8.059604
      51A2     8.069243    64B1     8.210987    80B2     8.244436
      96A1     8.255157    97A1     8.375392    81B2     8.455792
      98A1     8.480532    52A2     8.540204    65B1     8.551502
      82B2     8.558006    99A1     8.657082   100A1     8.869269
      53A2     8.875355    66B1     8.895073   101A1     9.043791
      67B1     9.090979   102A1     9.100092    54A2     9.103676
      68B1     9.128316    83B2     9.129424    84B2     9.143796
     103A1     9.151596    85B2     9.226346   104A1     9.230269
      55A2     9.266608    69B1     9.276435    70B1     9.306404
      56A2     9.361337   105A1     9.389701    86B2     9.415900
     106A1     9.442147    57A2     9.468818    87B2     9.525509
      71B1     9.543638    88B2     9.652504    72B1     9.694380
      58A2     9.724464   107A1     9.764112   108A1     9.897042
      59A2     9.976861    73B1     9.980177    89B2    10.040123
      74B1    10.147940   109A1    10.164803    90B2    10.166522
      91B2    10.216827   110A1    10.274565   111A1    10.416111
      92B2    10.446797    60A2    10.572772    75B1    10.688828
      93B2    10.736573   112A1    10.737726    61A2    10.768589
      76B1    10.816682   113A1    10.927581    94B2    10.939776
      95B2    11.016765   114A1    11.028031    62A2    11.111540
      96B2    11.165423    77B1    11.185539    78B1    11.303621
      63A2    11.306645   115A1    11.380062    79B1    11.419756
      64A2    11.504179    97B2    11.515625   116A1    11.542918
     117A1    11.762526    98B2    12.505410   118A1    12.617455
      80B1    12.631611    65A2    12.778718    99B2    12.885857
     119A1    13.208004    81B1    13.413167   100B2    13.513596
      66A2    13.628250   120A1    13.883666   101B2    13.889622
     121A1    14.718942   102B2    16.206630   122A1    16.317463
      82B1    17.185974   123A1    17.198038   103B2    17.232620
      67A2    17.247749    83B1    17.305428    68A2    17.375594
     124A1    17.387519   104B2    17.405567    69A2    17.518213
     105B2    17.546428    84B1    17.569000   125A1    17.650449
     126A1    17.912000    85B1    17.988901    70A2    18.205717
     106B2    18.270479   107B2    18.736050    86B1    18.785474
      71A2    18.786364   127A1    18.821972   108B2    19.023326
     128A1    19.051989    87B1    20.048055    72A2    20.058764
     129A1    20.075688   109B2    20.094879    73A2    20.352131
     110B2    20.563826   130A1    20.658973    88B1    20.753757
      89B1    21.169063   111B2    21.188496    90B1    21.193444
      74A2    21.237273   131A1    21.302766    75A2    21.302871
     112B2    21.323294   132A1    21.391965   113B2    21.633876
     133A1    21.658687   134A1    22.499244    91B1    22.882099
      76A2    22.902918   114B2    22.959794   115B2    23.020334
     135A1    23.156321   136A1    23.786877    77A2    23.859104
      92B1    23.877594   116B2    23.986950   137A1    24.196947
      93B1    24.224586   138A1    24.241039   117B2    24.265047
      78A2    24.269206    94B1    24.311770    79A2    24.354892
     118B2    24.477543   119B2    24.529229   139A1    24.578989
      95B1    24.905531    80A2    24.959356   140A1    25.194107
     120B2    25.206843   121B2    25.291622   141A1    25.302458
      96B1    30.480428   142A1    30.904367    81A2    30.940843
     143A1    31.139751    97B1    31.304933   122B2    32.169659
     144A1    34.379012    98B1    34.438485    82A2    34.453573
     145A1    34.714567   123B2    34.760142   124B2    35.740570
     146A1    36.980809   125B2    37.050542   147A1   248.875034

    Final Occupation by Irrep:
             A1    A2    B1    B2
    DOCC [     5,    0,    1,    2 ]
    SOCC [     0,    0,    1,    0 ]

  @UHF Final Energy:  -398.38194811360046

   => Energetics <=

    Nuclear Repulsion Energy =             12.7951257170376476
    One-Electron Energy =                -569.7683773903811471
    Two-Electron Energy =                 158.5913035597429825
    Total Energy =                       -398.3819481136005152

  UHF NO Occupations:
  HONO-2 :    2 B2 1.9991789
  HONO-1 :    5 A1 1.9929583
  HONO-0 :    2 B1 1.0000000
  LUNO+0 :    6 A1 0.0070417
  LUNO+1 :    3 B2 0.0008211
  LUNO+2 :    7 A1 0.0004773
  LUNO+3 :    3 B1 0.0000056

Computation Completed

Properties will be evaluated at   0.000000,   0.000000,   0.000000 [a0]

Properties computed using the SCF density matrix

  Nuclear Dipole Moment: [e a0]
     X:     0.0000      Y:     0.0000      Z:     1.6390

  Electronic Dipole Moment: [e a0]
     X:     0.0000      Y:     0.0000      Z:    -0.9882

  Dipole Moment: [e a0]
     X:     0.0000      Y:     0.0000      Z:     0.6508     Total:     0.6508

  Dipole Moment: [D]
     X:     0.0000      Y:     0.0000      Z:     1.6541     Total:     1.6541

*** tstop() called on n412-047.vsc4.prov at Mon Jan 25 05:36:05 2021
Module time:
	user time   =    1204.52 seconds =      20.08 minutes
	system time =     210.14 seconds =       3.50 minutes
	total time  =       1768 seconds =      29.47 minutes
Total time:
	user time   =    1204.52 seconds =      20.08 minutes
	system time =     210.14 seconds =       3.50 minutes
	total time  =       1768 seconds =      29.47 minutes

*** tstart() called on n412-047.vsc4.prov
*** at Mon Jan 25 05:36:05 2021

	Wfn Parameters:
	--------------------
	Wavefunction         = CCSD_T
	Number of irreps     = 4
	Number of MOs        = 452
	Number of active MOs = 447
	AO-Basis             = NONE
	Semicanonical        = false
	Reference            = UHF
	Print Level          = 1

	IRREP	# MOs	# FZDC	# DOCC	# SOCC	# VIRT	# FZVR
	-----	-----	------	------	------	------	------
	 A1	   147	    3	    2	    0	    142	    0
	 A2	   82	    0	    0	    0	    82	    0
	 B1	   98	    1	    0	    1	    96	    0
	 B2	   125	    1	    1	    0	    123	    0
	Transforming integrals...
	IWL integrals will be deleted.
	(OO|OO)...
	Presorting SO-basis two-electron integrals.
	Sorting File: SO Ints (nn|nn) nbuckets = 1
	Constructing frozen core operators
	Starting AA/AB first half-transformation.
	Sorting AA/AB half-transformed integrals.

      * MP2 total energy                      = -398.551407374793996
      * CCSD total energy                     = -398.573811875057459
      * CCSD(T) total energy                     = -398.580813081348253
*** Psi4 exiting successfully. Buy a developer a beer!
