                               Psi4 1.4a3.dev88

  ==> Input File <==

--------------------------------------------------------------------------
# Any line starting with the # character is a comment line
memory 250000 mb
molecule molecule{
0 2
Cl         0.0000000000        0.0000000000       -0.4834702805
O          0.0000000000        0.0000000000        1.0713196655
}

set {
  reference uhf
  basis aug-cc-pV(d+d)Z
  scf_type OUT_OF_CORE
  freeze_core true
}

energy('ccsd(t)')
--------------------------------------------------------------------------

    Molecular point group: c2v

    Geometry (in Angstrom), charge = 0, multiplicity = 2:

       Center              X                  Y                   Z               Mass
    ------------   -----------------  -----------------  -----------------  -----------------
         CL           0.000000000000     0.000000000000    -0.487968879743    34.968852682000
         O            0.000000000000     0.000000000000     1.066821066257    15.994914619570

  Charge       = 0
  Multiplicity = 2
  Basis Set: AUG-CC-PV(D+D)Z
    Blend: AUG-CC-PV(D+D)Z

    Orbital Energies [Eh]
    ---------------------

    Alpha Occupied:

       1A1  -104.919953     2A1   -20.707925     3A1   -10.642146
       1B2    -8.109439     4A1    -8.108775     1B1    -8.104463
       5A1    -1.497435     6A1    -1.066834     2B2    -0.744058
       7A1    -0.674653     2B1    -0.674314     3B2    -0.489569
       3B1    -0.455600

    Alpha Virtual:

       8A1     0.070617     9A1     0.124393     4B2     0.126939
       4B1     0.130544    10A1     0.191770    11A1     0.217996
       5B2     0.226151     5B1     0.236041    12A1     0.395774
       1A2     0.423354    13A1     0.423453     6B2     0.506473
       6B1     0.520364    14A1     0.697240    15A1     0.857057
       7B2     0.859244     7B1     0.870295    16A1     0.986550
       2A2     0.986650    17A1     1.068272     8B2     1.098588
       8B1     1.119520    18A1     1.242617     3A2     1.242866
       9B2     1.272625     9B1     1.299395    19A1     1.331158
      20A1     1.444956    10B2     1.475084    10B1     1.514547
      21A1     1.728404    22A1     2.828300    23A1     3.461023
       4A2     3.468035    11B2     3.557238    24A1     3.596001
      11B1     3.610654    25A1     5.903649     5A2     5.903717
      12B2     5.926593    12B1     5.933420    26A1     6.071736

    Beta Occupied:

       1A1  -104.918721     2A1   -20.667136     3A1   -10.640885
       4A1    -8.111442     1B1    -8.103843     1B2    -8.101012
       5A1    -1.391660     6A1    -1.007198     2B1    -0.645272
       7A1    -0.636409     2B2    -0.529870     3B1    -0.436458

    Beta Virtual:

       3B2     0.043974     8A1     0.075832     9A1     0.125950
       4B2     0.128693     4B1     0.130484    10A1     0.203081
      11A1     0.221475     5B1     0.238512     5B2     0.269076
      12A1     0.402394     1A2     0.429926    13A1     0.430254
       6B1     0.518228     6B2     0.544187    14A1     0.708446
      15A1     0.861463     7B1     0.871097     7B2     0.873848
       2A2     1.016911    16A1     1.017477    17A1     1.073326
       8B1     1.120929     8B2     1.129284     3A2     1.251534
      18A1     1.251556     9B1     1.305188     9B2     1.331846
      19A1     1.341708    20A1     1.456170    10B1     1.527051
      10B2     1.580170    21A1     1.750837    22A1     2.856758
      23A1     3.559549     4A2     3.560732    11B1     3.630005
      24A1     3.635113    11B2     3.647999    25A1     5.905576
       5A2     5.905607    12B2     5.928446    12B1     5.932949
      26A1     6.072530

    Final Occupation by Irrep:
             A1    A2    B1    B2
    DOCC [     7,    0,    3,    2 ]
    SOCC [     0,    0,    0,    1 ]

  @UHF Final Energy:  -534.27211354812414

   => Energetics <=

    Nuclear Repulsion Energy =             46.2879894716787845
    One-Electron Energy =                -829.7351337773177420
    Two-Electron Energy =                 249.1750307575148327
    Total Energy =                       -534.2721135481241390

  UHF NO Occupations:
  HONO-2 :    7 A1 1.9975154
  HONO-1 :    2 B2 1.9951406
  HONO-0 :    3 B2 1.0000000
  LUNO+0 :    4 B2 0.0048594
  LUNO+1 :    8 A1 0.0024846
  LUNO+2 :    9 A1 0.0011956
  LUNO+3 :    4 B1 0.0004142

Computation Completed

Properties will be evaluated at   0.000000,   0.000000,   0.000000 [a0]

Properties computed using the SCF density matrix

  Nuclear Dipole Moment: [e a0]
     X:     0.0000      Y:     0.0000      Z:     0.4518

  Electronic Dipole Moment: [e a0]
     X:     0.0000      Y:     0.0000      Z:    -0.7812

  Dipole Moment: [e a0]
     X:     0.0000      Y:     0.0000      Z:    -0.3294     Total:     0.3294

  Dipole Moment: [D]
     X:     0.0000      Y:     0.0000      Z:    -0.8372     Total:     0.8372

*** tstop() called on n412-039.vsc4.prov at Tue Jan 26 18:18:02 2021
Module time:
	user time   =      32.99 seconds =       0.55 minutes
	system time =       1.71 seconds =       0.03 minutes
	total time  =          4 seconds =       0.07 minutes
Total time:
	user time   =      32.99 seconds =       0.55 minutes
	system time =       1.71 seconds =       0.03 minutes
	total time  =          4 seconds =       0.07 minutes

*** tstart() called on n412-039.vsc4.prov
*** at Tue Jan 26 18:18:02 2021

	Wfn Parameters:
	--------------------
	Wavefunction         = CCSD_T
	Number of irreps     = 4
	Number of MOs        = 55
	Number of active MOs = 49
	AO-Basis             = NONE
	Semicanonical        = false
	Reference            = UHF
	Print Level          = 1

	IRREP	# MOs	# FZDC	# DOCC	# SOCC	# VIRT	# FZVR
	-----	-----	------	------	------	------	------
	 A1	   26	    4	    3	    0	    19	    0
	 A2	   5	    0	    0	    0	    5	    0
	 B1	   12	    1	    2	    0	    9	    0
	 B2	   12	    1	    1	    1	    9	    0
	Transforming integrals...
	IWL integrals will be deleted.
	(OO|OO)...
	Presorting SO-basis two-electron integrals.
	Sorting File: SO Ints (nn|nn) nbuckets = 1
	Constructing frozen core operators
	Starting AA/AB first half-transformation.
	Sorting AA/AB half-transformed integrals.
	Starting BB first half-transformation.
	Sorting BB half-transformed integrals.
	First half integral transformation complete.
	Starting AA second half-transformation.
	Starting AB second half-transformation.
	Starting BB second half-transformation.
	Two-electron integral transformation complete.
	(OO|OV)...
	Starting AA second half-transformation.
	Starting AB second half-transformation.
	Starting BB second half-transformation.
	Two-electron integral transformation complete.
	(OO|VV)...
	Starting AA second half-transformation.
	Starting AB second half-transformation.
	Starting BB second half-transformation.
	Two-electron integral transformation complete.
	(OV|OO)...
	Starting AA/AB first half-transformation.
	Sorting AA/AB half-transformed integrals.
	Starting BB first half-transformation.
	Sorting BB half-transformed integrals.
	First half integral transformation complete.
	Starting AA second half-transformation.
	Starting AB second half-transformation.
	Starting BB second half-transformation.
	Two-electron integral transformation complete.
	(OV|OV)...
	Starting AA second half-transformation.
	Starting AB second half-transformation.
	Starting BB second half-transformation.
	Two-electron integral transformation complete.
	(OV|VV)...
	Starting AA second half-transformation.
	Starting AB second half-transformation.
	Starting BB second half-transformation.
	Two-electron integral transformation complete.
	(VV|OO)...
	Starting AA/AB first half-transformation.
	Sorting AA/AB half-transformed integrals.
	Starting BB first half-transformation.
	Sorting BB half-transformed integrals.
	First half integral transformation complete.
	Starting AA second half-transformation.
	Starting AB second half-transformation.
	Starting BB second half-transformation.
	Two-electron integral transformation complete.
	(VV|OV)...
	Starting AA second half-transformation.
	Starting AB second half-transformation.
	Starting BB second half-transformation.
	Two-electron integral transformation complete.
	(VV|VV)...
	Starting AA second half-transformation.
	Starting AB second half-transformation.
	Starting BB second half-transformation.
	Two-electron integral transformation complete.
	Frozen core energy     =   -535.83783276881411

	Size of irrep 0 of <AB|CD> integrals:      0.064 (MW) /      0.512 (MB)
	Size of irrep 1 of <AB|CD> integrals:      0.031 (MW) /      0.248 (MB)
	Size of irrep 2 of <AB|CD> integrals:      0.047 (MW) /      0.373 (MB)
	Size of irrep 3 of <AB|CD> integrals:      0.047 (MW) /      0.373 (MB)
	Total:                                     0.188 (MW) /      1.506 (MB)

	Size of irrep 0 of <ab|cd> integrals:      0.069 (MW) /      0.549 (MB)
	Size of irrep 1 of <ab|cd> integrals:      0.034 (MW) /      0.274 (MB)
	Size of irrep 2 of <ab|cd> integrals:      0.049 (MW) /      0.391 (MB)
	Size of irrep 3 of <ab|cd> integrals:      0.055 (MW) /      0.442 (MB)
	Total:                                     0.207 (MW) /      1.655 (MB)

	Size of irrep 0 of <Ab|Cd> integrals:      0.310 (MW) /      2.482 (MB)
	Size of irrep 1 of <Ab|Cd> integrals:      0.130 (MW) /      1.043 (MB)
	Size of irrep 2 of <Ab|Cd> integrals:      0.191 (MW) /      1.528 (MB)
	Size of irrep 3 of <Ab|Cd> integrals:      0.203 (MW) /      1.627 (MB)
	Total:                                     0.835 (MW) /      6.680 (MB)

	Size of irrep 0 of <IA|BC> integrals:      0.051 (MW) /      0.408 (MB)
	Size of irrep 1 of <IA|BC> integrals:      0.018 (MW) /      0.144 (MB)
	Size of irrep 2 of <IA|BC> integrals:      0.032 (MW) /      0.259 (MB)
	Size of irrep 3 of <IA|BC> integrals:      0.032 (MW) /      0.259 (MB)
	Total:                                     0.134 (MW) /      1.070 (MB)

	Size of irrep 0 of <ia|bc> integrals:      0.048 (MW) /      0.386 (MB)
	Size of irrep 1 of <ia|bc> integrals:      0.016 (MW) /      0.130 (MB)
	Size of irrep 2 of <ia|bc> integrals:      0.031 (MW) /      0.248 (MB)
	Size of irrep 3 of <ia|bc> integrals:      0.028 (MW) /      0.222 (MB)
	Total:                                     0.123 (MW) /      0.985 (MB)

	Size of irrep 0 of <Ia|Bc> integrals:      0.053 (MW) /      0.423 (MB)
	Size of irrep 1 of <Ia|Bc> integrals:      0.019 (MW) /      0.153 (MB)
	Size of irrep 2 of <Ia|Bc> integrals:      0.033 (MW) /      0.262 (MB)
	Size of irrep 3 of <Ia|Bc> integrals:      0.035 (MW) /      0.281 (MB)
	Total:                                     0.140 (MW) /      1.120 (MB)

	Size of irrep 0 of <iA|bC> integrals:      0.047 (MW) /      0.374 (MB)
	Size of irrep 1 of <iA|bC> integrals:      0.015 (MW) /      0.121 (MB)
	Size of irrep 2 of <iA|bC> integrals:      0.031 (MW) /      0.245 (MB)
	Size of irrep 3 of <iA|bC> integrals:      0.025 (MW) /      0.202 (MB)
	Total:                                     0.118 (MW) /      0.942 (MB)

	Size of irrep 0 of tIjAb amplitudes:       0.008 (MW) /      0.067 (MB)
	Size of irrep 1 of tIjAb amplitudes:       0.002 (MW) /      0.017 (MB)
	Size of irrep 2 of tIjAb amplitudes:       0.005 (MW) /      0.042 (MB)
	Size of irrep 3 of tIjAb amplitudes:       0.004 (MW) /      0.032 (MB)
	Total:                                     0.020 (MW) /      0.159 (MB)

	Nuclear Rep. energy          =     46.28798947167878
	SCF energy                   =   -534.27211354812414
	One-electron energy          =    -79.19520934605615
	Two-electron (AA) energy     =      8.64821846974053
	Two-electron (BB) energy     =      5.88875387150604
	Two-electron (AB) energy     =     19.93596675382089
	Two-electron energy          =     34.47293909506747
	Reference energy             =   -534.27211354812403

*** tstop() called on n412-039.vsc4.prov at Tue Jan 26 18:18:04 2021
Module time:
	user time   =       0.28 seconds =       0.00 minutes
	system time =       0.31 seconds =       0.01 minutes
	total time  =          2 seconds =       0.03 minutes
Total time:
	user time   =      33.27 seconds =       0.55 minutes
	system time =       2.02 seconds =       0.03 minutes
	total time  =          6 seconds =       0.10 minutes
            **************************
            *                        *
            *        CCENERGY        *
            *                        *
            **************************

    Nuclear Rep. energy (wfn)     =   46.287989471678785
    SCF energy          (wfn)     = -534.272113548124139
    Reference energy    (file100) = -534.272113548124025

    Input parameters:
    -----------------
    Wave function   =     CCSD_T
    Reference wfn   =     UHF
    Brueckner       =     No
    Memory (Mbytes) =     250000.0
    Maxiter         =     50
    R_Convergence   =     1.0e-07
    E_Convergence   =     1.0e-06
    Restart         =     Yes
    DIIS            =     Yes
    AO Basis        =     NONE
    ABCD            =     NEW
    Cache Level     =     2
    Cache Type      =     LRU
    Print Level     =     1
    Num. of threads =     48
    # Amps to Print =     10
    Print MP2 Amps? =     No
    Analyze T2 Amps =     No
    Print Pair Ener =     No
    Local CC        =     No
    SCS-MP2         =     False
    SCSN-MP2        =     False
    SCS-CCSD        =     False

MP2 correlation energy -0.3106067671180393
                Solving CC Amplitude Equations
                ------------------------------
  Iter             Energy              RMS        T1Diag      D1Diag    New D1Diag    D2Diag
  ----     ---------------------    ---------   ----------  ----------  ----------   --------
     0        -0.310606767118039    0.000e+00    0.000000    0.000000    0.000000    0.000000
     1        -0.323531249776313    9.088e-02    0.021864    0.000000    0.000000    0.000000
     2        -0.335106006800618    3.432e-02    0.028436    0.000000    0.000000    0.000000
     3        -0.339228113460854    2.876e-02    0.039819    0.000000    0.000000    0.000000
     4        -0.340207902635620    1.582e-02    0.052046    0.000000    0.000000    0.000000
     5        -0.340421661664150    4.810e-03    0.055379    0.000000    0.000000    0.000000
     6        -0.340469536342752    1.281e-03    0.055848    0.000000    0.000000    0.000000
     7        -0.340472879379218    4.975e-04    0.055907    0.000000    0.000000    0.000000
     8        -0.340471496646045    2.124e-04    0.055957    0.000000    0.000000    0.000000
     9        -0.340466887462565    8.491e-05    0.055956    0.000000    0.000000    0.000000
    10        -0.340466904337927    3.438e-05    0.055958    0.000000    0.000000    0.000000
    11        -0.340467823703050    1.330e-05    0.055963    0.000000    0.000000    0.000000
    12        -0.340468083305670    5.081e-06    0.055962    0.000000    0.000000    0.000000
    13        -0.340468164171774    1.763e-06    0.055962    0.000000    0.000000    0.000000
    14        -0.340468124178898    6.388e-07    0.055962    0.000000    0.000000    0.000000
    15        -0.340468120173955    2.392e-07    0.055962    0.000000    0.000000    0.000000
    16        -0.340468116813329    7.763e-08    0.055962    0.000000    0.000000    0.000000

    Iterations converged.

    Largest TIA Amplitudes:
              2   2         0.0315588026
              5  34        -0.0239692333
              5  35        -0.0237072678
              2   0        -0.0236716808
              3  25        -0.0214793566
              3  26        -0.0196246718
              4  25        -0.0134893118
              2   4        -0.0119634979
              6  34        -0.0105199052
              2  11         0.0090319199

    Largest Tia Amplitudes:
              5  33        -0.1686610491
              5  35        -0.0603756655
              5  36        -0.0332881217
              5  40         0.0210466904
              3  26        -0.0178447527
              3  25        -0.0177832500
              5  39        -0.0157504595
              4  25        -0.0136086992
              2   2         0.0120917532
              2   0        -0.0087720217

    Largest TIJAB Amplitudes:
      6   4  19   5        -0.0253674055
      4   2  26   2         0.0202526576
      6   2  35   2         0.0193296627
      6   4  35  26        -0.0149778607
      6   3  19   5         0.0148750766
      4   2  26   0        -0.0138483153
      6   2  35   0        -0.0132200655
      6   4  21   5        -0.0129114537
      6   4  19  10         0.0129006105
      6   4  36  27        -0.0116567955

    Largest Tijab Amplitudes:
      5   2  33   2        -0.0381667343
      5   4  33  26         0.0276159349
      5   2  33   0         0.0263556659
      5   2  33   3         0.0263529720
      5   4  19   5        -0.0210925949
      4   2  26   2         0.0195332930
      5   3  19   5         0.0178546507
      5   2  33   4         0.0168186403
      5   2  35   2        -0.0150362826
      5   2  33   6        -0.0133589594

    Largest TIjAb Amplitudes:
      2   5   2  33        -0.0490379418
      2   2   2   2        -0.0424099905
      6   5  35  33         0.0337248741
      2   5   0  33         0.0332383719
      4   4  26  26        -0.0285731643
      4   5  26  33         0.0280902957
      2   2   0   2         0.0264653029
      2   2   2   3         0.0257105157
      2   2   2   0         0.0256053117
      6   5  19  19        -0.0250726811

    SCF energy       (wfn)                    = -534.272113548124139
    Reference energy (file100)                = -534.272113548124025

    Opposite-spin MP2 correlation energy      =   -0.226958008797612
    Same-spin MP2 correlation energy          =   -0.083648758320427
    Singles MP2 correlation energy            =   -0.000000000000000
    MP2 correlation energy                    =   -0.310606767118039
      * MP2 total energy                      = -534.582720315242113

    Opposite-spin CCSD correlation energy     =   -0.260410857869518
    Same-spin CCSD correlation energy         =   -0.080057258943811
    Singles CCSD correlation energy           =    0.000000000000000
    CCSD correlation energy                   =   -0.340468116813329
      * CCSD total energy                     = -534.612581664937352

            **************************
            *                        *

      * CCSD(T) total energy                     = -534.624054507655273
*** Psi4 exiting successfully. Buy a developer a beer!
