                               Psi4 1.4a3.dev88

  ==> Input File <==

--------------------------------------------------------------------------
# Any line starting with the # character is a comment line
memory 250000 mb
molecule molecule{
0 2
Cl         0.0000000000        0.0000000000       -0.4834702805
O          0.0000000000        0.0000000000        1.0713196655
}

set {
  reference uhf
  basis aug-cc-pV(t+d)Z
  scf_type OUT_OF_CORE
  freeze_core true
}

energy('ccsd(t)')
--------------------------------------------------------------------------

    Molecular point group: c2v

    Geometry (in Angstrom), charge = 0, multiplicity = 2:

       Center              X                  Y                   Z               Mass
    ------------   -----------------  -----------------  -----------------  -----------------
         CL           0.000000000000     0.000000000000    -0.487968879743    34.968852682000
         O            0.000000000000     0.000000000000     1.066821066257    15.994914619570

  Charge       = 0
  Multiplicity = 2
  Basis Set: AUG-CC-PV(T+D)Z
    Blend: AUG-CC-PV(T+D)Z

    Orbital Energies [Eh]
    ---------------------

    Alpha Occupied:

       1A1  -104.920489     2A1   -20.698167     3A1   -10.640372
       1B2    -8.108588     4A1    -8.105841     1B1    -8.103760
       5A1    -1.491468     6A1    -1.063969     2B2    -0.743442
       2B1    -0.673315     7A1    -0.672690     3B2    -0.489444
       3B1    -0.454705

    Alpha Virtual:

       8A1     0.064840     9A1     0.107144     4B2     0.107223
       4B1     0.110046    10A1     0.161388     5B2     0.187846
      11A1     0.188278     5B1     0.194341     1A2     0.315509
      12A1     0.315537    13A1     0.332840     6B2     0.401548
       6B1     0.411255    14A1     0.502484     7B2     0.585968
       7B1     0.594331    15A1     0.634771     2A2     0.696422
      16A1     0.696719    17A1     0.727949     8B2     0.745261
       8B1     0.759232    18A1     0.823482     3A2     0.823518
       9B2     0.884558     9B1     0.907475    19A1     0.985878
      20A1     1.067941    10B2     1.105643    10B1     1.131339
      21A1     1.155511    11B2     1.156513    11B1     1.156535
       4A2     1.279200    22A1     1.279545    12B2     1.479092
      12B1     1.490268    23A1     1.686629    24A1     1.991004
      13B2     2.056293    13B1     2.056299     5A2     2.079110
      25A1     2.081223    14B2     2.183556    14B1     2.213929
      26A1     2.260304     6A2     2.260643    27A1     2.278161
      28A1     2.374776     7A2     2.386377    29A1     2.393559
      15B2     2.396713    15B1     2.412432    16B2     2.514730
      16B1     2.532759    17B2     2.926510    17B1     2.939675
      18B2     3.014388    18B1     3.014398    30A1     3.063410
       8A2     3.063775    31A1     3.116039    32A1     3.259182
      19B2     3.396116    19B1     3.420459    33A1     3.530755
      20B2     4.244558    20B1     4.307812    34A1     5.022668
      35A1     6.372088    21B2     6.409664    21B1     6.409769
      36A1     6.522816     9A2     6.527913    37A1     6.675452
      22B2     6.680907    22B1     6.727719    38A1     6.931358
      10A2     6.931416    23B2     7.152697    23B1     7.211095
      39A1     7.417811    11A2     8.731754    40A1     8.731764
      24B2     8.800591    24B1     8.806864    41A1     9.417286
      42A1    11.392419

    Beta Occupied:

       1A1  -104.919209     2A1   -20.658447     3A1   -10.639062
       4A1    -8.108530     1B1    -8.103119     1B2    -8.099914
       5A1    -1.385602     6A1    -1.003879     2B1    -0.645493
       7A1    -0.634780     2B2    -0.527654     3B1    -0.436195

    Beta Virtual:

       3B2     0.046092     8A1     0.068436     4B2     0.108482
       9A1     0.108535     4B1     0.109982    10A1     0.168741
      11A1     0.193041     5B1     0.195740     5B2     0.217892
      12A1     0.318929     1A2     0.318987    13A1     0.338360
       6B1     0.410097     6B2     0.431862    14A1     0.509935
       7B2     0.593216     7B1     0.594352    15A1     0.637790
       2A2     0.707875    16A1     0.708047    17A1     0.729669
       8B1     0.757575     8B2     0.766569    18A1     0.833895
       3A2     0.833936     9B1     0.912054     9B2     0.947364
      19A1     0.999695    20A1     1.078612    10B1     1.137056
      10B2     1.159135    11B1     1.159366    21A1     1.160067
      11B2     1.167990     4A2     1.281343    22A1     1.281523
      12B2     1.487091    12B1     1.489739    23A1     1.696157
      24A1     2.017744    13B1     2.070092    13B2     2.070097
       5A2     2.133435    25A1     2.133705    14B1     2.219761
      14B2     2.231599    26A1     2.278551     6A2     2.279991
      27A1     2.282542    28A1     2.391272     7A2     2.393757
      29A1     2.397632    15B1     2.414535    15B2     2.417703
      16B2     2.525765    16B1     2.532307    17B2     2.934933
      17B1     2.939358    18B2     3.021852    18B1     3.021853
      30A1     3.067367     8A2     3.067514    31A1     3.131674
      32A1     3.272605    19B2     3.423255    19B1     3.423568
      33A1     3.534828    20B1     4.329955    20B2     4.373884
      34A1     5.042386    35A1     6.386654    21B2     6.460210
      21B1     6.460213    36A1     6.564258     9A2     6.564799
      37A1     6.694082    22B2     6.723989    22B1     6.737774
      10A2     7.020486    38A1     7.020678    23B1     7.232595
      23B2     7.239854    39A1     7.446513    11A2     8.734081
      40A1     8.734082    24B2     8.802180    24B1     8.806158
      41A1     9.420367    42A1    11.428864

    Final Occupation by Irrep:
             A1    A2    B1    B2
    DOCC [     7,    0,    3,    2 ]
    SOCC [     0,    0,    0,    1 ]

  @UHF Final Energy:  -534.30782013630164

   => Energetics <=

    Nuclear Repulsion Energy =             46.2879894716787845
    One-Electron Energy =                -829.8634875205407297
    Two-Electron Energy =                 249.2676779125603446
    Total Energy =                       -534.3078201363016433

  UHF NO Occupations:
  HONO-2 :    7 A1 1.9973689
  HONO-1 :    2 B2 1.9946743
  HONO-0 :    3 B2 1.0000000
  LUNO+0 :    4 B2 0.0053257
  LUNO+1 :    8 A1 0.0026311
  LUNO+2 :    9 A1 0.0013024
  LUNO+3 :    4 B1 0.0004733

Computation Completed

Properties will be evaluated at   0.000000,   0.000000,   0.000000 [a0]

Properties computed using the SCF density matrix

  Nuclear Dipole Moment: [e a0]
     X:     0.0000      Y:     0.0000      Z:     0.4518

  Electronic Dipole Moment: [e a0]
     X:     0.0000      Y:     0.0000      Z:    -0.7787

  Dipole Moment: [e a0]
     X:     0.0000      Y:     0.0000      Z:    -0.3269     Total:     0.3269

  Dipole Moment: [D]
     X:     0.0000      Y:     0.0000      Z:    -0.8309     Total:     0.8309

*** tstop() called on n412-040.vsc4.prov at Tue Jan 26 18:13:05 2021
Module time:
	user time   =      55.14 seconds =       0.92 minutes
	system time =       3.32 seconds =       0.06 minutes
	total time  =         10 seconds =       0.17 minutes
Total time:
	user time   =      55.14 seconds =       0.92 minutes
	system time =       3.32 seconds =       0.06 minutes
	total time  =         10 seconds =       0.17 minutes

*** tstart() called on n412-040.vsc4.prov
*** at Tue Jan 26 18:13:05 2021

	Wfn Parameters:
	--------------------
	Wavefunction         = CCSD_T
	Number of irreps     = 4
	Number of MOs        = 101
	Number of active MOs = 95
	AO-Basis             = NONE
	Semicanonical        = false
	Reference            = UHF
	Print Level          = 1

	IRREP	# MOs	# FZDC	# DOCC	# SOCC	# VIRT	# FZVR
	-----	-----	------	------	------	------	------
	 A1	   42	    4	    3	    0	    35	    0
	 A2	   11	    0	    0	    0	    11	    0
	 B1	   24	    1	    2	    0	    21	    0
	 B2	   24	    1	    1	    1	    21	    0
	Transforming integrals...
	IWL integrals will be deleted.
	(OO|OO)...
	Presorting SO-basis two-electron integrals.
	Sorting File: SO Ints (nn|nn) nbuckets = 1
	Constructing frozen core operators
	Starting AA/AB first half-transformation.
	Sorting AA/AB half-transformed integrals.
	Starting BB first half-transformation.
	Sorting BB half-transformed integrals.
	First half integral transformation complete.
	Starting AA second half-transformation.
	Starting AB second half-transformation.
	Starting BB second half-transformation.
	Two-electron integral transformation complete.
	(OO|OV)...
	Starting AA second half-transformation.
	Starting AB second half-transformation.
	Starting BB second half-transformation.
	Two-electron integral transformation complete.
	(OO|VV)...
	Starting AA second half-transformation.
	Starting AB second half-transformation.
	Starting BB second half-transformation.
	Two-electron integral transformation complete.
	(OV|OO)...
	Starting AA/AB first half-transformation.
	Sorting AA/AB half-transformed integrals.
	Starting BB first half-transformation.
	Sorting BB half-transformed integrals.
	First half integral transformation complete.
	Starting AA second half-transformation.
	Starting AB second half-transformation.
	Starting BB second half-transformation.
	Two-electron integral transformation complete.
	(OV|OV)...
	Starting AA second half-transformation.
	Starting AB second half-transformation.
	Starting BB second half-transformation.
	Two-electron integral transformation complete.
	(OV|VV)...
	Starting AA second half-transformation.
	Starting AB second half-transformation.
	Starting BB second half-transformation.
	Two-electron integral transformation complete.
	(VV|OO)...
	Starting AA/AB first half-transformation.
	Sorting AA/AB half-transformed integrals.
	Starting BB first half-transformation.
	Sorting BB half-transformed integrals.
	First half integral transformation complete.
	Starting AA second half-transformation.
	Starting AB second half-transformation.
	Starting BB second half-transformation.
	Two-electron integral transformation complete.
	(VV|OV)...
	Starting AA second half-transformation.
	Starting AB second half-transformation.
	Starting BB second half-transformation.
	Two-electron integral transformation complete.
	(VV|VV)...
	Starting AA second half-transformation.
	Starting AB second half-transformation.
	Starting BB second half-transformation.
	Two-electron integral transformation complete.
	Frozen core energy     =   -535.84621081821035

	Size of irrep 0 of <AB|CD> integrals:      1.145 (MW) /      9.159 (MB)
	Size of irrep 1 of <AB|CD> integrals:      0.682 (MW) /      5.458 (MB)
	Size of irrep 2 of <AB|CD> integrals:      0.933 (MW) /      7.465 (MB)
	Size of irrep 3 of <AB|CD> integrals:      0.933 (MW) /      7.465 (MB)
	Total:                                     3.693 (MW) /     29.548 (MB)

	Size of irrep 0 of <ab|cd> integrals:      1.190 (MW) /      9.522 (MB)
	Size of irrep 1 of <ab|cd> integrals:      0.717 (MW) /      5.739 (MB)
	Size of irrep 2 of <ab|cd> integrals:      0.955 (MW) /      7.636 (MB)
	Size of irrep 3 of <ab|cd> integrals:      1.002 (MW) /      8.016 (MB)
	Total:                                     3.864 (MW) /     30.914 (MB)

	Size of irrep 0 of <Ab|Cd> integrals:      5.058 (MW) /     40.464 (MB)
	Size of irrep 1 of <Ab|Cd> integrals:      2.799 (MW) /     22.391 (MB)
	Size of irrep 2 of <Ab|Cd> integrals:      3.775 (MW) /     30.202 (MB)
	Size of irrep 3 of <Ab|Cd> integrals:      3.869 (MW) /     30.953 (MB)
	Total:                                    15.501 (MW) /    124.010 (MB)

	Size of irrep 0 of <IA|BC> integrals:      0.421 (MW) /      3.369 (MB)
	Size of irrep 1 of <IA|BC> integrals:      0.193 (MW) /      1.546 (MB)
	Size of irrep 2 of <IA|BC> integrals:      0.299 (MW) /      2.396 (MB)
	Size of irrep 3 of <IA|BC> integrals:      0.299 (MW) /      2.396 (MB)
	Total:                                     1.213 (MW) /      9.706 (MB)

	Size of irrep 0 of <ia|bc> integrals:      0.384 (MW) /      3.070 (MB)
	Size of irrep 1 of <ia|bc> integrals:      0.166 (MW) /      1.328 (MB)
	Size of irrep 2 of <ia|bc> integrals:      0.281 (MW) /      2.251 (MB)
	Size of irrep 3 of <ia|bc> integrals:      0.246 (MW) /      1.970 (MB)
	Total:                                     1.077 (MW) /      8.619 (MB)

	Size of irrep 0 of <Ia|Bc> integrals:      0.430 (MW) /      3.436 (MB)
	Size of irrep 1 of <Ia|Bc> integrals:      0.199 (MW) /      1.593 (MB)
	Size of irrep 2 of <Ia|Bc> integrals:      0.301 (MW) /      2.409 (MB)
	Size of irrep 3 of <Ia|Bc> integrals:      0.311 (MW) /      2.486 (MB)
	Total:                                     1.241 (MW) /      9.925 (MB)

	Size of irrep 0 of <iA|bC> integrals:      0.378 (MW) /      3.023 (MB)
	Size of irrep 1 of <iA|bC> integrals:      0.161 (MW) /      1.285 (MB)
	Size of irrep 2 of <iA|bC> integrals:      0.280 (MW) /      2.238 (MB)
	Size of irrep 3 of <iA|bC> integrals:      0.236 (MW) /      1.888 (MB)
	Total:                                     1.054 (MW) /      8.434 (MB)

	Size of irrep 0 of tIjAb amplitudes:       0.034 (MW) /      0.270 (MB)
	Size of irrep 1 of tIjAb amplitudes:       0.010 (MW) /      0.080 (MB)
	Size of irrep 2 of tIjAb amplitudes:       0.023 (MW) /      0.187 (MB)
	Size of irrep 3 of tIjAb amplitudes:       0.018 (MW) /      0.142 (MB)
	Total:                                     0.085 (MW) /      0.678 (MB)

	Nuclear Rep. energy          =     46.28798947167878
	SCF energy                   =   -534.30782013630164
	One-electron energy          =    -79.27656249173168
	Two-electron (AA) energy     =      8.66116649530753
	Two-electron (BB) energy     =      5.89767961031396
	Two-electron (AB) energy     =     19.96811759634177
	Two-electron energy          =     34.52696370196326
	Reference energy             =   -534.30782013630005

*** tstop() called on n412-040.vsc4.prov at Tue Jan 26 18:13:17 2021
Module time:
	user time   =       2.92 seconds =       0.05 minutes
	system time =       1.61 seconds =       0.03 minutes
	total time  =         12 seconds =       0.20 minutes
Total time:
	user time   =      58.06 seconds =       0.97 minutes
	system time =       4.93 seconds =       0.08 minutes
	total time  =         22 seconds =       0.37 minutes
            **************************
            *                        *
            *        CCENERGY        *
            *                        *
            **************************

    Nuclear Rep. energy (wfn)     =   46.287989471678785
    SCF energy          (wfn)     = -534.307820136301643
    Reference energy    (file100) = -534.307820136300052

    Input parameters:
    -----------------
    Wave function   =     CCSD_T
    Reference wfn   =     UHF
    Brueckner       =     No
    Memory (Mbytes) =     250000.0
    Maxiter         =     50
    R_Convergence   =     1.0e-07
    E_Convergence   =     1.0e-06
    Restart         =     Yes
    DIIS            =     Yes
    AO Basis        =     NONE
    ABCD            =     NEW
    Cache Level     =     2
    Cache Type      =     LRU
    Print Level     =     1
    Num. of threads =     48
    # Amps to Print =     10
    Print MP2 Amps? =     No
    Analyze T2 Amps =     No
    Print Pair Ener =     No
    Local CC        =     No
    SCS-MP2         =     False
    SCSN-MP2        =     False
    SCS-CCSD        =     False

MP2 correlation energy -0.3949565642257805
                Solving CC Amplitude Equations
                ------------------------------
  Iter             Energy              RMS        T1Diag      D1Diag    New D1Diag    D2Diag
  ----     ---------------------    ---------   ----------  ----------  ----------   --------
     0        -0.394956564225781    0.000e+00    0.000000    0.000000    0.000000    0.000000
     1        -0.406733152724589    9.211e-02    0.021808    0.000000    0.000000    0.000000
     2        -0.419734680711622    3.317e-02    0.026907    0.000000    0.000000    0.000000
     3        -0.423997576754021    2.978e-02    0.037579    0.000000    0.000000    0.000000
     4        -0.424684216859003    1.698e-02    0.049845    0.000000    0.000000    0.000000
     5        -0.425141253385324    6.537e-03    0.054751    0.000000    0.000000    0.000000
     6        -0.425207194618282    1.641e-03    0.055310    0.000000    0.000000    0.000000
     7        -0.425211081512825    5.879e-04    0.055471    0.000000    0.000000    0.000000
     8        -0.425217132198817    2.386e-04    0.055518    0.000000    0.000000    0.000000
     9        -0.425211465368633    9.239e-05    0.055519    0.000000    0.000000    0.000000
    10        -0.425210490317267    3.823e-05    0.055522    0.000000    0.000000    0.000000
    11        -0.425211810971035    1.509e-05    0.055524    0.000000    0.000000    0.000000
    12        -0.425211996629891    6.033e-06    0.055525    0.000000    0.000000    0.000000
    13        -0.425212296080276    2.219e-06    0.055525    0.000000    0.000000    0.000000
    14        -0.425212295345640    7.935e-07    0.055525    0.000000    0.000000    0.000000
    15        -0.425212252792439    3.306e-07    0.055525    0.000000    0.000000    0.000000
    16        -0.425212239035033    1.102e-07    0.055525    0.000000    0.000000    0.000000
    17        -0.425212236940633    3.748e-08    0.055525    0.000000    0.000000    0.000000

    Iterations converged.

    Largest TIA Amplitudes:
              2   2        -0.0295670265
              5  69        -0.0242014695
              3  48        -0.0200812270
              2   0         0.0194096199
              5  68        -0.0181735614
              3  47        -0.0153789318
              5  72        -0.0153604739
              2   5         0.0129885365
              2   3         0.0129268869
              3  51        -0.0120957207

    Largest Tia Amplitudes:
              5  67        -0.1659763230
              5  69        -0.0605982091
              5  70        -0.0360258001
              5  73        -0.0253761057
              5  75         0.0230232686
              3  48        -0.0180879444
              3  47        -0.0120454084
              2   2        -0.0096818698
              2  12         0.0092561386
              4  47        -0.0086295481

    Largest TIJAB Amplitudes:
      6   4  37  10         0.0193102738
      6   4  35   4        -0.0166749780
      6   4  35  10         0.0161092591
      6   4  37   4        -0.0160955154
      4   2  48   2        -0.0150149419
      6   2  69   2        -0.0144404039
      4   2  51   2        -0.0118112577
      6   2  72   2        -0.0113215828
      4   2  50   2         0.0108375335
      6   3  37  10        -0.0105825360

    Largest Tijab Amplitudes:
      5   2  67   2         0.0326584067
      5   2  67   3        -0.0295563180
      5   4  67  48         0.0229765662
      5   2  67   0        -0.0212747514
      5   2  67   6        -0.0188937912
      5   2  67   5        -0.0186232608
      5   4  37  10        -0.0159624441
      5   4  67  51         0.0148905586

      * MP2 total energy                      = -534.702776700525874
      * CCSD total energy                     = -534.733032373240690
      * CCSD(T) total energy                     = -534.751959877098557
*** Psi4 exiting successfully. Buy a developer a beer!
