                               Psi4 1.2a1.dev939

  ==> Input File <==

--------------------------------------------------------------------------
# Any line starting with the # character is a comment line
memory 250000 mb
molecule molecule{
-1 3
C          0.0000000000        0.0000000000        0.0874497820
H          0.0000000000        0.0000000000       -1.0420851747
}

set {
  reference uhf
  basis aug-cc-pv(6+d)z
  scf_type OUT_OF_CORE
  freeze_core true
}

energy('ccsd')
--------------------------------------------------------------------------

    Molecular point group: c2v

    Geometry (in Angstrom), charge = -1, multiplicity = 3:

       Center              X                  Y                   Z               Mass
    ------------   -----------------  -----------------  -----------------  -----------------
           C          0.000000000000     0.000000000000     0.087514523078    12.000000000000
           H          0.000000000000     0.000000000000    -1.042020433622     1.007825032070

  Charge       = -1
  Multiplicity = 3
  Basis Set: AUG-CC-PV(6+D)Z
    Blend: AUG-CC-PV(6+D)Z

    Orbital Energies (a.u.)
    -----------------------

    Alpha Occupied:

       1A1   -10.969005     2A1    -0.583897     3A1    -0.159732
       1B1    -0.078196     1B2    -0.078196

    Alpha Virtual:

       4A1     0.127000     5A1     0.178091     2B1     0.179882
       2B2     0.179882     6A1     0.233459     7A1     0.294349
       3B2     0.317355     3B1     0.317355     1A2     0.358165
       8A1     0.358165     9A1     0.371186     4B2     0.399483
       4B1     0.399483    10A1     0.409838     5B1     0.424435
       5B2     0.424435    11A1     0.430704    12A1     0.553271
       6B1     0.619511     6B2     0.619511     2A2     0.619892
      13A1     0.619892     7B1     0.675473     7B2     0.675473
      14A1     0.702950    15A1     0.726416     3A2     0.726416
      16A1     0.745271     8B1     0.748089     8B2     0.748089
      17A1     0.801886    18A1     0.849798     4A2     0.849798
       9B1     0.857396     9B2     0.857396    19A1     0.860190
      10B1     0.937540    10B2     0.937540    20A1     0.938596
      11B1     1.128450    11B2     1.128450    21A1     1.202099
      12B2     1.292868    12B1     1.292868    22A1     1.313745
      23A1     1.315057     5A2     1.315057    13B1     1.386164
      13B2     1.386164    24A1     1.492773    25A1     1.501682
       6A2     1.501682    14B1     1.588074    14B2     1.588074
      26A1     1.634382     7A2     1.634382    27A1     1.653376
       8A2     1.653376    15B1     1.653468    15B2     1.653468
      28A1     1.668064    16B2     1.673779    16B1     1.673779
      17B1     1.674522    17B2     1.674522     9A2     1.679928
      29A1     1.679928    30A1     1.689759    31A1     1.802472
      18B1     1.900126    18B2     1.900126    32A1     1.985648
      19B1     2.088989    19B2     2.088989    33A1     2.236366
      20B1     2.417657    20B2     2.417657    10A2     2.455655
      34A1     2.455655    35A1     2.505875    11A2     2.505875
      36A1     2.544585    12A2     2.700398    37A1     2.700398
      21B2     2.701606    21B1     2.701606    22B1     2.745342
      22B2     2.745342    38A1     2.776422    23B1     2.897668
      23B2     2.897668    24B1     2.958342    24B2     2.958342
      39A1     3.067321    25B1     3.114121    25B2     3.114121
      40A1     3.150841    13A2     3.150841    41A1     3.240302
      14A2     3.256808    42A1     3.256808    26B1     3.316035
      26B2     3.316035    15A2     3.365088    43A1     3.365088
      27B1     3.387638    27B2     3.387638    44A1     3.398823
      28B2     3.519067    28B1     3.519067    45A1     3.530265
      16A2     3.530265    17A2     3.600567    46A1     3.600567
      29B1     3.686515    29B2     3.686515    47A1     3.696648
      30B1     3.775375    30B2     3.775375    48A1     3.821281
      18A2     4.045683    49A1     4.045683    50A1     4.195819
      31B1     4.210595    31B2     4.210595    32B1     4.588821
      32B2     4.588821    33B2     4.666423    33B1     4.666423
      34B2     4.709300    34B1     4.709300    19A2     4.741309
      51A1     4.741309    52A1     4.825913    53A1     4.935203
      35B1     5.190973    35B2     5.190973    54A1     5.297983
      20A2     5.297983    55A1     5.363733    36B2     5.420879
      36B1     5.420879    21A2     5.433150    56A1     5.433150
      37B1     5.477025    37B2     5.477025    57A1     5.641357
      22A2     5.641357    58A1     5.817676    23A2     5.817676
      59A1     5.819380    60A1     5.885770    38B1     5.916614
      38B2     5.916614    39B2     5.992807    39B1     5.992807
      61A1     6.209463    24A2     6.209463    40B1     6.422605
      40B2     6.422605    41B1     6.509556    41B2     6.509556
      42B2     6.544121    42B1     6.544121    62A1     6.583661
      25A2     6.583661    63A1     6.585813    26A2     6.585813
      43B2     6.639594    43B1     6.639594    44B1     6.672740
      44B2     6.672740    64A1     6.687514    65A1     6.915562
      66A1     6.942609    27A2     6.942609    45B1     7.042469
      45B2     7.042469    46B2     7.272311    46B1     7.272311
      67A1     7.440214    68A1     7.685491    28A2     7.685491
      69A1     7.689139    29A2     7.689139    47B1     7.787086
      47B2     7.787086    70A1     7.886725    48B2     7.898670
      48B1     7.898670    71A1     8.136325    30A2     8.248924
      72A1     8.248924    73A1     8.366829    31A2     8.366829
      74A1     8.535356    32A2     8.535356    49B2     8.572826
      49B1     8.572826    75A1     8.974426    50B2     9.671496
      50B1     9.671496    51B2     9.687647    51B1     9.687647
      76A1     9.911377    77A1     9.953517    33A2     9.953517
      52B2    10.288643    52B1    10.288643    78A1    10.660944
      53B2    10.672054    53B1    10.672054    34A2    10.904110
      79A1    10.904110    80A1    11.030736    54B2    11.459037
      54B1    11.459037    81A1    11.649333    35A2    11.649333
      82A1    11.859831    55B2    12.205828    55B1    12.205828
      83A1    12.836189    36A2    12.836189    56B1    12.902714
      56B2    12.902714    37A2    13.025742    84A1    13.025742
      85A1    13.100219    57B2    13.395477    57B1    13.395477
      86A1    13.785115    87A1    13.807841    38A2    13.807841
      58B2    13.970590    58B1    13.970590    59B2    14.124894
      59B1    14.124894    60B2    14.789857    60B1    14.789857
      61B1    14.880312    61B2    14.880312    88A1    14.941478
      39A2    14.941478    89A1    14.956934    40A2    14.956934
      62B2    14.988388    62B1    14.988388    63B1    15.033432
      63B2    15.033432    90A1    15.260669    64B2    15.287763
      64B1    15.287763    91A1    15.735380    41A2    15.735380
      92A1    15.885449    93A1    16.471660    65B2    17.020785
      65B1    17.020785    94A1    17.156057    42A2    17.156057
      66B2    17.306376    66B1    17.306376    95A1    17.838124
      67B1    17.845118    67B2    17.845118    96A1    18.017159
      43A2    18.017159    97A1    18.187859    44A2    18.187859
      68B2    18.574875    68B1    18.574875    69B1    19.189549
      69B2    19.189549    98A1    19.419361    99A1    19.994866
      45A2    19.994866   100A1    20.704517    46A2    20.762568
     101A1    20.762568    47A2    21.140103   102A1    21.140103
      70B2    21.303542    70B1    21.303542    71B2    21.672365
      71B1    21.672365    72B2    22.093446    72B1    22.093446
      48A2    22.263543   103A1    22.263543   104A1    22.505852
      73B2    22.560116    73B1    22.560116   105A1    23.345881
     106A1    23.831084    49A2    23.831084   107A1    24.338871
      74B2    24.627873    74B1    24.627873    50A2    25.491975
     108A1    25.491975    75B2    25.620715    75B1    25.620715
     109A1    27.072813    76B2    27.396510    76B1    27.396510
     110A1    27.540192    77B2    36.223635    77B1    36.223635
     111A1    39.196758   112A1    59.506246

    Beta Occupied:

       1A1   -10.934177     2A1    -0.422221     3A1    -0.087462

    Beta Virtual:

       4A1     0.127638     1B1     0.175762     1B2     0.175762
       5A1     0.179434     6A1     0.240391     7A1     0.295400
       2B1     0.315444     2B2     0.315444     3B1     0.351316
       3B2     0.351316     8A1     0.369249     1A2     0.369249
       9A1     0.372542     4B1     0.402293     4B2     0.402293
      10A1     0.417241    11A1     0.446954     5B2     0.533851
       5B1     0.533851    12A1     0.565008    13A1     0.627022
       2A2     0.627022     6B1     0.634368     6B2     0.634368
       7B2     0.685821     7B1     0.685821    14A1     0.710215
      15A1     0.736397     3A2     0.736397    16A1     0.749074
       8B1     0.753003     8B2     0.753003    17A1     0.826009
       9B1     0.877979     9B2     0.877979    18A1     0.881670
      19A1     0.897081     4A2     0.897081    20A1     0.952018
      10B2     1.012462    10B1     1.012462    11B1     1.146895
      11B2     1.146895    21A1     1.213537    12B2     1.299898
      12B1     1.299898    22A1     1.320649     5A2     1.320649
      23A1     1.321986    13B1     1.392907    13B2     1.392907
      24A1     1.505292    25A1     1.516367     6A2     1.516367
      14B1     1.609908    14B2     1.609908    26A1     1.650243
       7A2     1.650243    27A1     1.668178     8A2     1.668178
      15B1     1.668251    15B2     1.668251    28A1     1.673400
      16B2     1.692931    16B1     1.692931    17B2     1.698913
      17B1     1.698913    29A1     1.716153     9A2     1.755136
      30A1     1.755136    31A1     1.825984    18B2     1.924371
      18B1     1.924371    32A1     2.002857    19B2     2.147562
      19B1     2.147562    33A1     2.241792    20B1     2.428235
      20B2     2.428235    10A2     2.471410    34A1     2.471410
      11A2     2.512846    35A1     2.512846    36A1     2.553260
      21B2     2.703591    21B1     2.703591    12A2     2.704746
      37A1     2.704746    22B1     2.749105    22B2     2.749105
      38A1     2.780535    23B1     2.913534    23B2     2.913534
      24B2     2.981377    24B1     2.981377    39A1     3.087280
      25B2     3.127162    25B1     3.127162    40A1     3.161106
      13A2     3.161106    41A1     3.261400    42A1     3.280458
      14A2     3.280458    26B1     3.324743    26B2     3.324743
      43A1     3.391945    15A2     3.391945    44A1     3.408979
      27B1     3.436277    27B2     3.436277    28B2     3.537828
      28B1     3.537828    45A1     3.560871    16A2     3.560871
      46A1     3.643586    17A2     3.643586    47A1     3.713037
      29B2     3.713352    29B1     3.713352    30B2     3.791417
      30B1     3.791417    48A1     3.838211    49A1     4.080873
      18A2     4.080873    50A1     4.216466    31B2     4.227165
      31B1     4.227165    32B2     4.633101    32B1     4.633101
      33B2     4.675672    33B1     4.675672    34B1     4.715344
      34B2     4.715344    19A2     4.746000    51A1     4.746000
      52A1     4.832203    53A1     4.944042    35B2     5.198928
      35B1     5.198928    54A1     5.303797    20A2     5.303797
      55A1     5.378617    36B2     5.422409    36B1     5.422409
      21A2     5.439509    56A1     5.439509    37B2     5.485865
      37B1     5.485865    22A2     5.658743    57A1     5.658743
      58A1     5.824821    59A1     5.834392    23A2     5.834392
      60A1     5.900518    38B1     5.929498    38B2     5.929498
      39B2     5.999572    39B1     5.999572    61A1     6.218759
      24A2     6.218759    40B2     6.445494    40B1     6.445494
      41B1     6.535358    41B2     6.535358    42B2     6.556458
      42B1     6.556458    62A1     6.595107    25A2     6.595107
      63A1     6.602707    26A2     6.602707    43B2     6.646485
      43B1     6.646485    44B2     6.687303    44B1     6.687303
      64A1     6.693301    65A1     6.927225    66A1     6.965948
      27A2     6.965948    45B1     7.090523    45B2     7.090523
      46B2     7.287522    46B1     7.287522    67A1     7.459668
      68A1     7.706188    28A2     7.706188    69A1     7.727421
      29A2     7.727421    47B2     7.814326    47B1     7.814326
      70A1     7.904791    48B2     7.920242    48B1     7.920242
      71A1     8.151729    30A2     8.253929    72A1     8.253929
      73A1     8.408911    31A2     8.408911    74A1     8.557453
      32A2     8.557453    49B2     8.585484    49B1     8.585484
      75A1     8.981306    50B2     9.679477    50B1     9.679477
      51B2     9.712179    51B1     9.712179    76A1     9.922358
      77A1     9.959158    33A2     9.959158    52B2    10.293253
      52B1    10.293253    78A1    10.668435    53B2    10.672834
      53B1    10.672834    34A2    10.906674    79A1    10.906674
      80A1    11.034185    54B2    11.464871    54B1    11.464871
      81A1    11.658559    35A2    11.658559    82A1    11.866615
      55B2    12.214924    55B1    12.214924    83A1    12.859336
      36A2    12.859336    56B1    12.922335    56B2    12.922335
      84A1    13.042148    37A2    13.042148    85A1    13.117313
      57B1    13.408999    57B2    13.408999    86A1    13.795917
      87A1    13.819892    38A2    13.819892    58B2    13.990248
      58B1    13.990248    59B2    14.132652    59B1    14.132652
      60B2    14.800295    60B1    14.800295    61B1    14.909754
      61B2    14.909754    88A1    14.958691    39A2    14.958691
      89A1    14.981153    40A2    14.981153    62B2    15.007470
      62B1    15.007470    63B1    15.070829    63B2    15.070829
      90A1    15.273184    64B2    15.303799    64B1    15.303799
      91A1    15.757715    41A2    15.757715    92A1    15.900951
      93A1    16.481405    65B2    17.035441    65B1    17.035441
      94A1    17.188345    42A2    17.188345    66B2    17.331671
      66B1    17.331671    67B2    17.845940    67B1    17.845940
      95A1    17.852356    96A1    18.037884    43A2    18.037884
      97A1    18.189888    44A2    18.189888    68B2    18.590716
      68B1    18.590716    69B1    19.193075    69B2    19.193075
      98A1    19.427743    99A1    20.021304    45A2    20.021304
     100A1    20.710185    46A2    20.762646   101A1    20.762646
      47A2    21.144802   102A1    21.144802    70B2    21.312804
      70B1    21.312804    71B2    21.672762    71B1    21.672762
      72B2    22.098971    72B1    22.098971    48A2    22.264322
     103A1    22.264322   104A1    22.506007    73B2    22.563413
      73B1    22.563413   105A1    23.350877   106A1    23.830601
      49A2    23.830601   107A1    24.338111    74B2    24.627142
      74B1    24.627142    50A2    25.492279   108A1    25.492279
      75B2    25.621207    75B1    25.621207   109A1    27.073205
      76B2    27.397533    76B1    27.397533   110A1    27.541783
      77B2    36.222400    77B1    36.222400   111A1    39.195971
     112A1    59.515365

    Final Occupation by Irrep:
             A1    A2    B1    B2
    DOCC [     3,    0,    0,    0 ]
    SOCC [     0,    0,    1,    1 ]

  Energy converged.

  @UHF Final Energy:   -38.30011077108987

   => Energetics <=

    Nuclear Repulsion Energy =              2.8109473130571598
    One-Electron Energy =                 -58.9092297836143644
    Two-Electron Energy =                  17.7981716994673320
    Total Energy =                        -38.3001107710898694

  UHF NO Occupations:
  HONO-2 :    3 A1 1.9902082
  HONO-1 :    1 B2 1.0000000
  HONO-0 :    1 B1 1.0000000
  LUNO+0 :    4 A1 0.0097918
  LUNO+1 :    5 A1 0.0023272
  LUNO+2 :    6 A1 0.0000023
  LUNO+3 :    7 A1 0.0000000

Properties will be evaluated at   0.000000,   0.000000,   0.000000 Bohr

Properties computed using the SCF density matrix

  Nuclear Dipole Moment: (a.u.)
     X:     0.0000      Y:     0.0000      Z:    -0.9769

  Electronic Dipole Moment: (a.u.)
     X:     0.0000      Y:     0.0000      Z:     0.3950

  Dipole Moment: (a.u.)
     X:     0.0000      Y:     0.0000      Z:    -0.5819     Total:     0.5819

  Dipole Moment: (Debye)
     X:     0.0000      Y:     0.0000      Z:    -1.4789     Total:     1.4789

*** tstop() called on n412-020.vsc4.prov at Fri Oct 30 14:15:50 2020
Module time:
	user time   =     682.62 seconds =      11.38 minutes
	system time =      45.48 seconds =       0.76 minutes
	total time  =        599 seconds =       9.98 minutes
Total time:
	user time   =     682.62 seconds =      11.38 minutes
	system time =      45.48 seconds =       0.76 minutes
	total time  =        599 seconds =       9.98 minutes

*** tstart() called on n412-020.vsc4.prov
*** at Fri Oct 30 14:15:50 2020

	Wfn Parameters:
	--------------------
	Wavefunction         = CCSD
	Number of irreps     = 4
	Number of MOs        = 316
	Number of active MOs = 315
	AO-Basis             = NONE
	Semicanonical        = false
	Reference            = UHF
	Print Level          = 1

	IRREP	# MOs	# FZDC	# DOCC	# SOCC	# VIRT	# FZVR
	-----	-----	------	------	------	------	------
	 A1	   112	    1	    2	    0	    109	    0
	 A2	   50	    0	    0	    0	    50	    0
	 B1	   77	    0	    0	    1	    76	    0
	 B2	   77	    0	    0	    1	    76	    0
	Transforming integrals...
	IWL integrals will be deleted.
	(OO|OO)...
	Presorting SO-basis two-electron integrals.
	Sorting File: SO Ints (nn|nn) nbuckets = 1
	Transforming the one-electron integrals and constructing Fock matrices
	Starting AA/AB first half-transformation.
	Sorting AA/AB half-transformed integrals.
	Starting BB first half-transformation.
	Sorting BB half-transformed integrals.
	First half integral transformation complete.
	Starting AA second half-transformation.
	Starting AB second half-transformation.
	Starting BB second half-transformation.
	Two-electron integral transformation complete.
	(OO|OV)...
	Starting AA second half-transformation.
	Starting AB second half-transformation.
	Starting BB second half-transformation.
	Two-electron integral transformation complete.
	(OO|VV)...
	Starting AA second half-transformation.
	Starting AB second half-transformation.
	Starting BB second half-transformation.
	Two-electron integral transformation complete.
	(OV|OO)...
	Starting AA/AB first half-transformation.
	Sorting AA/AB half-transformed integrals.
	Starting BB first half-transformation.
	Sorting BB half-transformed integrals.
	First half integral transformation complete.
	Starting AA second half-transformation.
	Starting AB second half-transformation.
	Starting BB second half-transformation.
	Two-electron integral transformation complete.
	(OV|OV)...
	Starting AA second half-transformation.
	Starting AB second half-transformation.
	Starting BB second half-transformation.
	Two-electron integral transformation complete.
	(OV|VV)...
	Starting AA second half-transformation.
	Starting AB second half-transformation.
	Starting BB second half-transformation.
	Two-electron integral transformation complete.
	(VV|OO)...
	Starting AA/AB first half-transformation.
	Sorting AA/AB half-transformed integrals.
	Starting BB first half-transformation.
	Sorting BB half-transformed integrals.
	First half integral transformation complete.
	Starting AA second half-transformation.
	Starting AB second half-transformation.
	Starting BB second half-transformation.
	Two-electron integral transformation complete.
	(VV|OV)...
	Starting AA second half-transformation.
	Starting AB second half-transformation.
	Starting BB second half-transformation.
	Two-electron integral transformation complete.
	(VV|VV)...
	Starting AA second half-transformation.
	Starting AB second half-transformation.
	Starting BB second half-transformation.
	Two-electron integral transformation complete.
	Frozen core energy     =    -33.29699601928809

	Size of irrep 0 of <AB|CD> integrals:    164.122 (MW) /   1312.974 (MB)
	Size of irrep 1 of <AB|CD> integrals:    126.023 (MW) /   1008.185 (MB)
	Size of irrep 2 of <AB|CD> integrals:    146.023 (MW) /   1168.184 (MB)
	Size of irrep 3 of <AB|CD> integrals:    146.023 (MW) /   1168.184 (MB)
	Total:                                   582.191 (MW) /   4657.527 (MB)

	Size of irrep 0 of <ab|cd> integrals:    168.039 (MW) /   1344.315 (MB)
	Size of irrep 1 of <ab|cd> integrals:    129.482 (MW) /   1035.853 (MB)
	Size of irrep 2 of <ab|cd> integrals:    149.891 (MW) /   1199.128 (MB)
	Size of irrep 3 of <ab|cd> integrals:    149.891 (MW) /   1199.128 (MB)
	Total:                                   597.303 (MW) /   4778.425 (MB)

	Size of irrep 0 of <Ab|Cd> integrals:    680.427 (MW) /   5443.418 (MB)
	Size of irrep 1 of <Ab|Cd> integrals:    510.941 (MW) /   4087.527 (MB)
	Size of irrep 2 of <Ab|Cd> integrals:    591.803 (MW) /   4734.423 (MB)
	Size of irrep 3 of <Ab|Cd> integrals:    591.803 (MW) /   4734.423 (MB)
	Total:                                  2374.974 (MW) /  18999.791 (MB)

	Size of irrep 0 of <IA|BC> integrals:      9.595 (MW) /     76.762 (MB)
	Size of irrep 1 of <IA|BC> integrals:      5.658 (MW) /     45.263 (MB)
	Size of irrep 2 of <IA|BC> integrals:      7.516 (MW) /     60.130 (MB)
	Size of irrep 3 of <IA|BC> integrals:      7.516 (MW) /     60.130 (MB)
	Total:                                    30.286 (MW) /    242.285 (MB)

	Size of irrep 0 of <ia|bc> integrals:      5.720 (MW) /     45.761 (MB)
	Size of irrep 1 of <ia|bc> integrals:      2.276 (MW) /     18.206 (MB)
	Size of irrep 2 of <ia|bc> integrals:      3.771 (MW) /     30.167 (MB)
	Size of irrep 3 of <ia|bc> integrals:      3.771 (MW) /     30.167 (MB)
	Total:                                    15.538 (MW) /    124.301 (MB)

      * MP2 total energy                      =  -38.444492295227718
      * CCSD total energy                     =  -38.458705688494305
*** Psi4 exiting successfully. Buy a developer a beer!
