                               Psi4 1.2a1.dev938

  ==> Input File <==

--------------------------------------------------------------------------
# Any line starting with the # character is a comment line
memory 250000 mb
molecule molecule{
-1 3
C          0.0000000000        0.0000000000        0.0874497820
H          0.0000000000        0.0000000000       -1.0420851747
}

set {
  reference uhf
  basis aug-cc-pv(5+d)z
  scf_type OUT_OF_CORE
  freeze_core true
}

energy('ccsd')
--------------------------------------------------------------------------

    Molecular point group: c2v

    Geometry (in Angstrom), charge = -1, multiplicity = 3:

       Center              X                  Y                   Z               Mass
    ------------   -----------------  -----------------  -----------------  -----------------
           C          0.000000000000     0.000000000000     0.087514523078    12.000000000000
           H          0.000000000000     0.000000000000    -1.042020433622     1.007825032070

  Charge       = -1
  Multiplicity = 3
  Basis Set: AUG-CC-PV(5+D)Z
    Blend: AUG-CC-PV(5+D)Z

    Orbital Energies (a.u.)
    -----------------------

    Alpha Occupied:

       1A1   -10.968963     2A1    -0.583853     3A1    -0.159673
       1B2    -0.078157     1B1    -0.078157

    Alpha Virtual:

       4A1     0.135352     5A1     0.198197     2B2     0.201888
       2B1     0.201888     6A1     0.257429     7A1     0.331440
       3B2     0.352688     3B1     0.352688     8A1     0.390972
       1A2     0.390972     9A1     0.414439     4B2     0.432569
       4B1     0.432569    10A1     0.483352    11A1     0.489428
       5B1     0.527606     5B2     0.527606    12A1     0.641517
       6B2     0.707993     6B1     0.707993     2A2     0.756141
      13A1     0.756141     7B2     0.778452     7B1     0.778452
       3A2     0.825062    14A1     0.825062    15A1     0.851998
      16A1     0.870004     8B2     0.874422     8B1     0.874422
      17A1     0.901880    18A1     0.965591     4A2     0.965591
       9B2     0.971363     9B1     0.971363    19A1     1.012644
      20A1     1.227204    10B1     1.234865    10B2     1.234865
      11B2     1.341306    11B1     1.341306    12B1     1.487136
      12B2     1.487136    21A1     1.553669    22A1     1.578876
       5A2     1.619475    23A1     1.619475    13B2     1.635834
      13B1     1.635834    24A1     1.709557     6A2     1.843290
      25A1     1.843290    26A1     1.888390     7A2     1.888390
      14B1     1.925401    14B2     1.925401    15B1     1.947065
      15B2     1.947065     8A2     1.994601    27A1     1.994601
      28A1     2.024221    16B2     2.028499    16B1     2.028499
      17B2     2.064386    17B1     2.064386     9A2     2.096358
      29A1     2.096358    30A1     2.105775    18B2     2.352105
      18B1     2.352105    31A1     2.370757    32A1     2.626538
      19B2     2.846640    19B1     2.846640    33A1     2.996046
      10A2     3.014387    34A1     3.014387    20B2     3.040075
      20B1     3.040075    11A2     3.282595    35A1     3.282595
      36A1     3.311735    21B2     3.443000    21B1     3.443000
      12A2     3.548652    37A1     3.548652    38A1     3.597027
      22B2     3.724150    22B1     3.724150    23B2     3.804989
      23B1     3.804989    24B2     3.826530    24B1     3.826530
      39A1     3.848105    25B2     3.942226    25B1     3.942226
      13A2     4.107193    40A1     4.107193    41A1     4.237496
      14A2     4.275803    42A1     4.275803    26B2     4.332094
      26B1     4.332094    15A2     4.410402    43A1     4.410402
      16A2     4.426661    44A1     4.426661    27B2     4.427359
      27B1     4.427359    28B2     4.462858    28B1     4.462858
      45A1     4.553003    17A2     4.650290    46A1     4.650290
      29B2     4.661962    29B1     4.661962    30B2     4.784345
      30B1     4.784345    47A1     4.984520    18A2     5.157032
      48A1     5.157032    49A1     5.205696    31B2     5.546708
      31B1     5.546708    32B2     5.568153    32B1     5.568153
      50A1     5.914763    19A2     6.187728    51A1     6.187728
      33B1     6.422431    33B2     6.422431    52A1     6.475002
      53A1     6.772427    20A2     6.786754    54A1     6.786754
      34B2     7.167126    34B1     7.167126    55A1     7.835721
      35B2     8.096853    35B1     8.096853    56A1     8.947966
      36B2     9.204562    36B1     9.204562    37B1     9.288445
      37B2     9.288445    57A1     9.347765    21A2     9.347765
      38B2     9.363406    38B1     9.363406    22A2     9.705046
      58A1     9.705046    39B2     9.795138    39B1     9.795138
      59A1    10.160484    40B2    10.441602    40B1    10.441602
      60A1    10.592632    23A2    10.714301    61A1    10.714301
      24A2    10.721355    62A1    10.721355    41B2    10.747102
      41B1    10.747102    42B2    10.822782    42B1    10.822782
      63A1    11.008707    64A1    11.046989    25A2    11.046989
      65A1    11.909046    43B2    12.020520    43B1    12.020520
      26A2    12.374608    66A1    12.374608    44B2    13.158461
      44B1    13.158461    67A1    13.454790    27A2    13.492215
      68A1    13.492215    45B2    13.515532    45B1    13.515532
      46B1    13.948552    46B2    13.948552    28A2    14.281815
      69A1    14.281815    29A2    14.648678    70A1    14.648678
      47B2    14.804487    47B1    14.804487    71A1    15.006405
      48B2    15.144836    48B1    15.144836    72A1    15.400127
      73A1    15.489606    30A2    15.489606    74A1    16.117703
      49B2    17.976675    49B1    17.976675    50B2    18.161893
      50B1    18.161893    75A1    19.161666    76A1    20.808696
      77A1    38.836346

    Beta Occupied:

       1A1   -10.934133     2A1    -0.422186     3A1    -0.087450

    Beta Virtual:

       4A1     0.136299     1B2     0.195004     1B1     0.195004
       5A1     0.200189     6A1     0.265915     7A1     0.334386
       2B2     0.345164     2B1     0.345164     3B2     0.389555
       3B1     0.389555     1A2     0.405930     8A1     0.405930
       9A1     0.417807     4B2     0.444905     4B1     0.444905
      10A1     0.494114    11A1     0.505071     5B1     0.628447
       5B2     0.628447    12A1     0.658628     6B2     0.725157
       6B1     0.725157    13A1     0.768161     2A2     0.768161
       7B2     0.792803     7B1     0.792803     3A2     0.839279
      14A1     0.839279    15A1     0.865366    16A1     0.877492
       8B2     0.877956     8B1     0.877956    17A1     0.924658
       9B2     0.999531     9B1     0.999531     4A2     1.019746
      18A1     1.019746    19A1     1.034983    20A1     1.237943
      10B1     1.316599    10B2     1.316599    11B2     1.351768
      11B1     1.351768    12B2     1.495483    12B1     1.495483
      21A1     1.562530    22A1     1.596464     5A2     1.623912
      23A1     1.623912    13B1     1.644293    13B2     1.644293
      24A1     1.729321     6A2     1.863184    25A1     1.863184
       7A2     1.920228    26A1     1.920228    14B1     1.961154
      14B2     1.961154    15B1     1.992479    15B2     1.992479
       8A2     2.028822    27A1     2.028822    28A1     2.033069
      16B1     2.036853    16B2     2.036853    17B2     2.082931
      17B1     2.082931    29A1     2.130765     9A2     2.158057
      30A1     2.158057    18B2     2.366554    18B1     2.366554
      31A1     2.391672    32A1     2.641394    19B2     2.882736
      19B1     2.882736    33A1     3.009992    10A2     3.028422
      34A1     3.028422    20B1     3.072185    20B2     3.072185
      11A2     3.291505    35A1     3.291505    36A1     3.329413
      21B2     3.453482    21B1     3.453482    12A2     3.554926
      37A1     3.554926    38A1     3.602589    22B2     3.726335
      22B1     3.726335    23B2     3.826805    23B1     3.826805
      24B2     3.861781    24B1     3.861781    39A1     3.870351
      25B2     3.958179    25B1     3.958179    40A1     4.121302
      13A2     4.121302    41A1     4.253094    14A2     4.307846
      42A1     4.307846    26B2     4.347083    26B1     4.347083
      15A2     4.441290    43A1     4.441290    16A2     4.446763
      44A1     4.446763    27B1     4.483497    27B2     4.483497
      28B2     4.485220    28B1     4.485220    45A1     4.561467
      29B1     4.674713    29B2     4.674713    17A2     4.693422
      46A1     4.693422    30B2     4.806256    30B1     4.806256
      47A1     5.001097    18A2     5.205647    48A1     5.205647
      49A1     5.225194    31B2     5.557690    31B1     5.557690
      32B2     5.582844    32B1     5.582844    50A1     5.930872
      19A2     6.191467    51A1     6.191467    33B1     6.442106
      33B2     6.442106    52A1     6.484646    53A1     6.787316
      20A2     6.801171    54A1     6.801171    34B2     7.173804
      34B1     7.173804    55A1     7.841737    35B2     8.107148
      35B1     8.107148    56A1     8.972344    36B1     9.247454
      36B2     9.247454    37B1     9.319525    37B2     9.319525
      57A1     9.373193    21A2     9.373193    38B2     9.384052
      38B1     9.384052    22A2     9.722938    58A1     9.722938
      39B2     9.808678    39B1     9.808678    59A1    10.172705
      40B2    10.490156    40B1    10.490156    60A1    10.616857
      23A2    10.738721    61A1    10.738721    24A2    10.762270
      62A1    10.762270    41B2    10.766274    41B1    10.766274
      42B2    10.854583    42B1    10.854583    63A1    11.026736
      64A1    11.077685    25A2    11.077685    65A1    11.919572
      43B2    12.040874    43B1    12.040874    26A2    12.418627
      66A1    12.418627    44B2    13.181086    44B1    13.181086
      67A1    13.467343    27A2    13.493294    68A1    13.493294
      45B2    13.515602    45B1    13.515602    46B1    13.951312
      46B2    13.951312    28A2    14.284692    69A1    14.284692
      29A2    14.647947    70A1    14.647947    47B2    14.805714
      47B1    14.805714    71A1    15.007368    48B2    15.146929
      48B1    15.146929    72A1    15.399746    73A1    15.493073
      30A2    15.493073    74A1    16.119311    49B2    17.981839
      49B1    17.981839    50B2    18.160371    50B1    18.160371
      75A1    19.164483    76A1    20.809043    77A1    38.850295

    Final Occupation by Irrep:
             A1    A2    B1    B2
    DOCC [     3,    0,    0,    0 ]
    SOCC [     0,    0,    1,    1 ]

  Energy converged.

  @UHF Final Energy:   -38.30005418472413

   => Energetics <=

    Nuclear Repulsion Energy =              2.8109473130571598
    One-Electron Energy =                 -58.9094329112871762
    Two-Electron Energy =                  17.7984314135058810
    PCM Polarization Energy =               0.0000000000000000
    Total Energy =                        -38.3000541847241323

    Alert: EFP and PCM quantities not currently incorporated into SCF psivars.
  UHF NO Occupations:
  HONO-2 :    3 A1 1.9902256
  HONO-1 :    1 B1 1.0000000
  HONO-0 :    1 B2 1.0000000
  LUNO+0 :    4 A1 0.0097744
  LUNO+1 :    5 A1 0.0023159
  LUNO+2 :    6 A1 0.0000023
  LUNO+3 :    7 A1 0.0000000

Properties will be evaluated at   0.000000,   0.000000,   0.000000 Bohr

Properties computed using the SCF density matrix

  Nuclear Dipole Moment: (a.u.)
     X:     0.0000      Y:     0.0000      Z:    -0.9769

  Electronic Dipole Moment: (a.u.)
     X:     0.0000      Y:     0.0000      Z:     0.3932

  Dipole Moment: (a.u.)
     X:     0.0000      Y:     0.0000      Z:    -0.5837     Total:     0.5837

  Dipole Moment: (Debye)
     X:     0.0000      Y:     0.0000      Z:    -1.4835     Total:     1.4835

*** tstop() called on cqc05 at Thu Aug 20 23:43:57 2020
Module time:
	user time   =      43.27 seconds =       0.72 minutes
	system time =       2.66 seconds =       0.04 minutes
	total time  =         46 seconds =       0.77 minutes
Total time:
	user time   =      43.27 seconds =       0.72 minutes
	system time =       2.66 seconds =       0.04 minutes
	total time  =         46 seconds =       0.77 minutes

*** tstart() called on cqc05
*** at Thu Aug 20 23:43:57 2020

	Wfn Parameters:
	--------------------
	Wavefunction         = CCSD
	Number of irreps     = 4
	Number of MOs        = 207
	Number of active MOs = 206
	AO-Basis             = NONE
	Semicanonical        = false
	Reference            = UHF
	Print Level          = 1

	IRREP	# MOs	# FZDC	# DOCC	# SOCC	# VIRT	# FZVR
	-----	-----	------	------	------	------	------
	 A1	   77	    1	    2	    0	    74	    0
	 A2	   30	    0	    0	    0	    30	    0
	 B1	   50	    0	    0	    1	    49	    0
	 B2	   50	    0	    0	    1	    49	    0
	Transforming integrals...
	IWL integrals will be deleted.
	(OO|OO)...
	Presorting SO-basis two-electron integrals.
	Sorting File: SO Ints (nn|nn) nbuckets = 1
	Transforming the one-electron integrals and constructing Fock matrices
	Starting AA/AB first half-transformation.
	Sorting AA/AB half-transformed integrals.
	Starting BB first half-transformation.
	Sorting BB half-transformed integrals.
	First half integral transformation complete.
	Starting AA second half-transformation.
	Starting AB second half-transformation.
	Starting BB second half-transformation.
	Two-electron integral transformation complete.
	(OO|OV)...
	Starting AA second half-transformation.
	Starting AB second half-transformation.
	Starting BB second half-transformation.
	Two-electron integral transformation complete.
	(OO|VV)...
	Starting AA second half-transformation.
	Starting AB second half-transformation.
	Starting BB second half-transformation.
	Two-electron integral transformation complete.
	(OV|OO)...
	Starting AA/AB first half-transformation.
	Sorting AA/AB half-transformed integrals.
	Starting BB first half-transformation.
	Sorting BB half-transformed integrals.
	First half integral transformation complete.
	Starting AA second half-transformation.
	Starting AB second half-transformation.
	Starting BB second half-transformation.
	Two-electron integral transformation complete.
	(OV|OV)...
	Starting AA second half-transformation.
	Starting AB second half-transformation.
	Starting BB second half-transformation.
	Two-electron integral transformation complete.
	(OV|VV)...
	Starting AA second half-transformation.
	Starting AB second half-transformation.
	Starting BB second half-transformation.
	Two-electron integral transformation complete.
	(VV|OO)...
	Starting AA/AB first half-transformation.
	Sorting AA/AB half-transformed integrals.
	Starting BB first half-transformation.
	Sorting BB half-transformed integrals.
	First half integral transformation complete.
	Starting AA second half-transformation.
	Starting AB second half-transformation.
	Starting BB second half-transformation.
	Two-electron integral transformation complete.
	(VV|OV)...
	Starting AA second half-transformation.
	Starting AB second half-transformation.
	Starting BB second half-transformation.
	Two-electron integral transformation complete.
	(VV|VV)...
	Starting AA second half-transformation.
	Starting AB second half-transformation.
	Starting BB second half-transformation.
	Two-electron integral transformation complete.
	Frozen core energy     =    -33.29698040162769

	Size of irrep 0 of <AB|CD> integrals:     30.118 (MW) /    240.945 (MB)
	Size of irrep 1 of <AB|CD> integrals:     21.354 (MW) /    170.829 (MB)
	Size of irrep 2 of <AB|CD> integrals:     25.969 (MW) /    207.754 (MB)
	Size of irrep 3 of <AB|CD> integrals:     25.969 (MW) /    207.754 (MB)
	Total:                                   103.410 (MW) /    827.282 (MB)

	Size of irrep 0 of <ab|cd> integrals:     31.203 (MW) /    249.627 (MB)
	Size of irrep 1 of <ab|cd> integrals:     22.278 (MW) /    178.227 (MB)
	Size of irrep 2 of <ab|cd> integrals:     27.040 (MW) /    216.320 (MB)
	Size of irrep 3 of <ab|cd> integrals:     27.040 (MW) /    216.320 (MB)
	Total:                                   107.562 (MW) /    860.494 (MB)

	Size of irrep 0 of <Ab|Cd> integrals:    127.148 (MW) /   1017.185 (MB)
	Size of irrep 1 of <Ab|Cd> integrals:     87.236 (MW) /    697.885 (MB)
	Size of irrep 2 of <Ab|Cd> integrals:    106.008 (MW) /    848.061 (MB)
	Size of irrep 3 of <Ab|Cd> integrals:    106.008 (MW) /    848.061 (MB)
	Total:                                   426.399 (MW) /   3411.192 (MB)

	Size of irrep 0 of <IA|BC> integrals:      2.750 (MW) /     21.998 (MB)
	Size of irrep 1 of <IA|BC> integrals:      1.460 (MW) /     11.682 (MB)
	Size of irrep 2 of <IA|BC> integrals:      2.059 (MW) /     16.470 (MB)
	Size of irrep 3 of <IA|BC> integrals:      2.059 (MW) /     16.470 (MB)
	Total:                                     8.328 (MW) /     66.621 (MB)

	Size of irrep 0 of <ia|bc> integrals:      1.684 (MW) /     13.469 (MB)
	Size of irrep 1 of <ia|bc> integrals:      0.566 (MW) /      4.531 (MB)
	Size of irrep 2 of <ia|bc> integrals:      1.040 (MW) /      8.320 (MB)
	Size of irrep 3 of <ia|bc> integrals:      1.040 (MW) /      8.320 (MB)
	Total:                                     4.330 (MW) /     34.640 (MB)

	Size of irrep 0 of <Ia|Bc> integrals:      2.796 (MW) /     22.372 (MB)
	Size of irrep 1 of <Ia|Bc> integrals:      1.494 (MW) /     11.955 (MB)
	Size of irrep 2 of <Ia|Bc> integrals:      2.100 (MW) /     16.803 (MB)
	Size of irrep 3 of <Ia|Bc> integrals:      2.100 (MW) /     16.803 (MB)
	Total:                                     8.492 (MW) /     67.933 (MB)

	Size of irrep 0 of <iA|bC> integrals:      1.669 (MW) /     13.351 (MB)
	Size of irrep 1 of <iA|bC> integrals:      0.560 (MW) /      4.483 (MB)
	Size of irrep 2 of <iA|bC> integrals:      1.009 (MW) /      8.072 (MB)
	Size of irrep 3 of <iA|bC> integrals:      1.009 (MW) /      8.072 (MB)
	Total:                                     4.247 (MW) /     33.978 (MB)

	Size of irrep 0 of tIjAb amplitudes:       0.045 (MW) /      0.361 (MB)
	Size of irrep 1 of tIjAb amplitudes:       0.000 (MW) /      0.000 (MB)
	Size of irrep 2 of tIjAb amplitudes:       0.021 (MW) /      0.165 (MB)
	Size of irrep 3 of tIjAb amplitudes:       0.021 (MW) /      0.165 (MB)
	Total:                                     0.086 (MW) /      0.690 (MB)

	Nuclear Rep. energy          =      2.81094731305716
	SCF energy                   =    -38.30005418472413
	One-electron energy          =    -14.21856846009459
	Two-electron (AA) energy     =      2.35492273518168
	Two-electron (BB) energy     =      0.34615553029199
	Two-electron (AB) energy     =      3.70346909846707
	Two-electron energy          =      6.40454736394073
	Reference energy             =    -38.30005418472440

*** tstop() called on cqc05 at Thu Aug 20 23:44:59 2020
Module time:
	user time   =      37.81 seconds =       0.63 minutes
	system time =      23.40 seconds =       0.39 minutes
	total time  =         62 seconds =       1.03 minutes
Total time:
	user time   =      81.08 seconds =       1.35 minutes
	system time =      26.06 seconds =       0.43 minutes
	total time  =        108 seconds =       1.80 minutes

*** tstart() called on cqc05
*** at Thu Aug 20 23:44:59 2020

            **************************
            *                        *
            *        CCENERGY        *
            *                        *
            **************************

    Nuclear Rep. energy (wfn)     =    2.810947313057160
    SCF energy          (wfn)     =  -38.300054184724132
    Reference energy    (file100) =  -38.300054184724395

    Input parameters:
    -----------------
    Wave function   =     CCSD
    Reference wfn   =     UHF
    Brueckner       =     No
    Memory (Mbytes) =     250000.0
    Maxiter         =     50
    R_Convergence   =     1.0e-07
    E_Convergence   =     1.0e-06
    Restart         =     Yes
    DIIS            =     Yes
    AO Basis        =     NONE
    ABCD            =     NEW
    Cache Level     =     2
    Cache Type      =     LRU
    Print Level     =     1
    Num. of threads =     4
    # Amps to Print =     10
    Print MP2 Amps? =     No
    Analyze T2 Amps =     No
    Print Pair Ener =     No
    Local CC        =     No

      * MP2 total energy                      =  -38.443158492761356
      * CCSD total energy                     =  -38.457993243744205
*** Psi4 exiting successfully. Buy a developer a beer!
