                               Psi4 1.2a1.dev938

  ==> Input File <==

--------------------------------------------------------------------------
# Any line starting with the # character is a comment line
memory 250000 mb
molecule molecule{
-1 3
C          0.0000000000        0.0000000000        0.0874497820
H          0.0000000000        0.0000000000       -1.0420851747
}

set {
  reference uhf
  basis aug-cc-pv(t+d)z
  scf_type OUT_OF_CORE
  freeze_core true
}

energy('ccsd')
--------------------------------------------------------------------------

    Molecular point group: c2v

    Geometry (in Angstrom), charge = -1, multiplicity = 3:

       Center              X                  Y                   Z               Mass
    ------------   -----------------  -----------------  -----------------  -----------------
           C          0.000000000000     0.000000000000     0.087514523078    12.000000000000
           H          0.000000000000     0.000000000000    -1.042020433622     1.007825032070

  Charge       = -1
  Multiplicity = 3
  Basis Set: AUG-CC-PV(T+D)Z
    Blend: AUG-CC-PV(T+D)Z

    Orbital Energies (a.u.)
    -----------------------

    Alpha Occupied:

       1A1   -10.969893     2A1    -0.583956     3A1    -0.159394
       1B1    -0.077801     1B2    -0.077801

    Alpha Virtual:

       4A1     0.155085     5A1     0.253005     2B1     0.258239
       2B2     0.258239     6A1     0.313487     7A1     0.432821
       3B2     0.471731     3B1     0.471731     8A1     0.512071
       1A2     0.512071     9A1     0.569648     4B1     0.583912
       4B2     0.583912    10A1     0.610852    11A1     0.812406
       5B1     0.828562     5B2     0.828562    12A1     0.938661
      13A1     1.129334     2A2     1.129334     6B1     1.140732
       6B2     1.140732    14A1     1.200351    15A1     1.339701
       3A2     1.339701     7B1     1.346841     7B2     1.346841
      16A1     1.359667     8B2     1.360026     8B1     1.360026
      17A1     1.555148     9B1     1.571637     9B2     1.571637
      18A1     1.599444     4A2     1.599444    19A1     1.829544
      10B1     2.033733    10B2     2.033733    20A1     2.305201
      11B1     2.972093    11B2     2.972094    21A1     3.164727
      22A1     3.416134    12B1     3.545874    12B2     3.545874
      23A1     3.682300     5A2     3.682300    24A1     3.747226
       6A2     3.747226    13B1     3.775004    13B2     3.775004
      25A1     3.871439    14B1     3.971987    14B2     3.971987
      26A1     4.089479    27A1     4.464393     7A2     4.464393
      15B1     4.882481    15B2     4.882481    16B2     5.350408
      16B1     5.350408    28A1     5.460411    29A1     5.741362
      30A1    11.574476

    Beta Occupied:

       1A1   -10.935299     2A1    -0.422270     3A1    -0.087373

    Beta Virtual:

       4A1     0.156842     1B1     0.239051     1B2     0.239051
       5A1     0.257404     6A1     0.327121     2B2     0.422405
       2B1     0.422405     7A1     0.442885     3B1     0.502458
       3B2     0.502458     1A2     0.544629     8A1     0.544629
       9A1     0.581371     4B1     0.604209     4B2     0.604209
      10A1     0.628023    11A1     0.834727     5B2     0.935956
       5B1     0.935956    12A1     0.963375     2A2     1.155194
      13A1     1.155194     6B1     1.158977     6B2     1.158977
      14A1     1.228994    15A1     1.385315     7B2     1.389560
       7B1     1.389560     8B2     1.398030     8B1     1.398030
      16A1     1.421130     3A2     1.421130    17A1     1.567206
       9B1     1.586531     9B2     1.586531     4A2     1.629949
      18A1     1.629949    19A1     1.857214    10B2     2.073181
      10B1     2.073181    20A1     2.330418    11B2     3.044262
      11B1     3.044262    21A1     3.180300    22A1     3.443362
      12B2     3.590422    12B1     3.590422     5A2     3.724062
      23A1     3.724062    13B1     3.842592    13B2     3.842592
       6A2     3.844248    24A1     3.844248    25A1     3.905615
      14B2     4.010253    14B1     4.010253    26A1     4.107707
       7A2     4.481320    27A1     4.481320    15B2     4.884298
      15B1     4.884298    16B2     5.368148    16B1     5.368148
      28A1     5.471743    29A1     5.751170    30A1    11.600557

    Final Occupation by Irrep:
             A1    A2    B1    B2
    DOCC [     3,    0,    0,    0 ]
    SOCC [     0,    0,    1,    1 ]

  Energy converged.

  @UHF Final Energy:   -38.29782199360671

   => Energetics <=

    Nuclear Repulsion Energy =              2.8109473130571598
    One-Electron Energy =                 -58.9037519239390193
    Two-Electron Energy =                  17.7949826172751457
    PCM Polarization Energy =               0.0000000000000000
    Total Energy =                        -38.2978219936067106

    Alert: EFP and PCM quantities not currently incorporated into SCF psivars.
  UHF NO Occupations:
  HONO-2 :    3 A1 1.9903848
  HONO-1 :    1 B2 1.0000000
  HONO-0 :    1 B1 1.0000000
  LUNO+0 :    4 A1 0.0096152
  LUNO+1 :    5 A1 0.0022598
  LUNO+2 :    6 A1 0.0000021
  LUNO+3 :    7 A1 0.0000000

Properties will be evaluated at   0.000000,   0.000000,   0.000000 Bohr

Properties computed using the SCF density matrix

  Nuclear Dipole Moment: (a.u.)
     X:     0.0000      Y:     0.0000      Z:    -0.9769

  Electronic Dipole Moment: (a.u.)
     X:     0.0000      Y:     0.0000      Z:     0.3842

  Dipole Moment: (a.u.)
     X:     0.0000      Y:     0.0000      Z:    -0.5926     Total:     0.5926

  Dipole Moment: (Debye)
     X:     0.0000      Y:     0.0000      Z:    -1.5063     Total:     1.5063

*** tstop() called on cqc05 at Thu Aug 20 19:58:17 2020
Module time:
	user time   =       1.30 seconds =       0.02 minutes
	system time =       0.02 seconds =       0.00 minutes
	total time  =          0 seconds =       0.00 minutes
Total time:
	user time   =       1.30 seconds =       0.02 minutes
	system time =       0.02 seconds =       0.00 minutes
	total time  =          0 seconds =       0.00 minutes

*** tstart() called on cqc05
*** at Thu Aug 20 19:58:17 2020

	Wfn Parameters:
	--------------------
	Wavefunction         = CCSD
	Number of irreps     = 4
	Number of MOs        = 69
	Number of active MOs = 68
	AO-Basis             = NONE
	Semicanonical        = false
	Reference            = UHF
	Print Level          = 1

	IRREP	# MOs	# FZDC	# DOCC	# SOCC	# VIRT	# FZVR
	-----	-----	------	------	------	------	------
	 A1	   30	    1	    2	    0	    27	    0
	 A2	   7	    0	    0	    0	    7	    0
	 B1	   16	    0	    0	    1	    15	    0
	 B2	   16	    0	    0	    1	    15	    0
	Transforming integrals...
	IWL integrals will be deleted.
	(OO|OO)...
	Presorting SO-basis two-electron integrals.
	Sorting File: SO Ints (nn|nn) nbuckets = 1
	Transforming the one-electron integrals and constructing Fock matrices
	Starting AA/AB first half-transformation.
	Sorting AA/AB half-transformed integrals.
	Starting BB first half-transformation.
	Sorting BB half-transformed integrals.
	First half integral transformation complete.
	Starting AA second half-transformation.
	Starting AB second half-transformation.
	Starting BB second half-transformation.
	Two-electron integral transformation complete.
	(OO|OV)...
	Starting AA second half-transformation.
	Starting AB second half-transformation.
	Starting BB second half-transformation.
	Two-electron integral transformation complete.
	(OO|VV)...
	Starting AA second half-transformation.
	Starting AB second half-transformation.
	Starting BB second half-transformation.
	Two-electron integral transformation complete.
	(OV|OO)...
	Starting AA/AB first half-transformation.
	Sorting AA/AB half-transformed integrals.
	Starting BB first half-transformation.
	Sorting BB half-transformed integrals.
	First half integral transformation complete.
	Starting AA second half-transformation.
	Starting AB second half-transformation.
	Starting BB second half-transformation.
	Two-electron integral transformation complete.
	(OV|OV)...
	Starting AA second half-transformation.
	Starting AB second half-transformation.
	Starting BB second half-transformation.
	Two-electron integral transformation complete.
	(OV|VV)...
	Starting AA second half-transformation.
	Starting AB second half-transformation.
	Starting BB second half-transformation.
	Two-electron integral transformation complete.
	(VV|OO)...
	Starting AA/AB first half-transformation.
	Sorting AA/AB half-transformed integrals.
	Starting BB first half-transformation.
	Sorting BB half-transformed integrals.
	First half integral transformation complete.
	Starting AA second half-transformation.
	Starting AB second half-transformation.
	Starting BB second half-transformation.
	Two-electron integral transformation complete.
	(VV|OV)...
	Starting AA second half-transformation.
	Starting AB second half-transformation.
	Starting BB second half-transformation.
	Two-electron integral transformation complete.
	(VV|VV)...
	Starting AA second half-transformation.
	Starting AB second half-transformation.
	Starting BB second half-transformation.
	Two-electron integral transformation complete.
	Frozen core energy     =    -33.29618466703189

	Size of irrep 0 of <AB|CD> integrals:      0.339 (MW) /      2.710 (MB)
	Size of irrep 1 of <AB|CD> integrals:      0.171 (MW) /      1.371 (MB)
	Size of irrep 2 of <AB|CD> integrals:      0.260 (MW) /      2.081 (MB)
	Size of irrep 3 of <AB|CD> integrals:      0.260 (MW) /      2.081 (MB)
	Total:                                     1.030 (MW) /      8.243 (MB)

	Size of irrep 0 of <ab|cd> integrals:      0.375 (MW) /      2.996 (MB)
	Size of irrep 1 of <ab|cd> integrals:      0.198 (MW) /      1.584 (MB)
	Size of irrep 2 of <ab|cd> integrals:      0.296 (MW) /      2.367 (MB)
	Size of irrep 3 of <ab|cd> integrals:      0.296 (MW) /      2.367 (MB)
	Total:                                     1.164 (MW) /      9.316 (MB)

	Size of irrep 0 of <Ab|Cd> integrals:      1.583 (MW) /     12.661 (MB)
	Size of irrep 1 of <Ab|Cd> integrals:      0.736 (MW) /      5.889 (MB)
	Size of irrep 2 of <Ab|Cd> integrals:      1.111 (MW) /      8.887 (MB)
	Size of irrep 3 of <Ab|Cd> integrals:      1.111 (MW) /      8.887 (MB)
	Total:                                     4.541 (MW) /     36.324 (MB)

	Size of irrep 0 of <IA|BC> integrals:      0.103 (MW) /      0.825 (MB)
	Size of irrep 1 of <IA|BC> integrals:      0.036 (MW) /      0.291 (MB)
	Size of irrep 2 of <IA|BC> integrals:      0.065 (MW) /      0.522 (MB)
	Size of irrep 3 of <IA|BC> integrals:      0.065 (MW) /      0.522 (MB)
	Total:                                     0.270 (MW) /      2.161 (MB)

	Size of irrep 0 of <ia|bc> integrals:      0.070 (MW) /      0.557 (MB)
	Size of irrep 1 of <ia|bc> integrals:      0.012 (MW) /      0.100 (MB)
	Size of irrep 2 of <ia|bc> integrals:      0.035 (MW) /      0.279 (MB)
	Size of irrep 3 of <ia|bc> integrals:      0.035 (MW) /      0.279 (MB)
	Total:                                     0.152 (MW) /      1.214 (MB)

	Size of irrep 0 of <Ia|Bc> integrals:      0.108 (MW) /      0.866 (MB)
	Size of irrep 1 of <Ia|Bc> integrals:      0.039 (MW) /      0.316 (MB)
	Size of irrep 2 of <Ia|Bc> integrals:      0.070 (MW) /      0.557 (MB)
	Size of irrep 3 of <Ia|Bc> integrals:      0.070 (MW) /      0.557 (MB)
	Total:                                     0.287 (MW) /      2.294 (MB)

	Size of irrep 0 of <iA|bC> integrals:      0.068 (MW) /      0.543 (MB)
	Size of irrep 1 of <iA|bC> integrals:      0.012 (MW) /      0.096 (MB)
	Size of irrep 2 of <iA|bC> integrals:      0.032 (MW) /      0.253 (MB)
	Size of irrep 3 of <iA|bC> integrals:      0.032 (MW) /      0.253 (MB)
	Total:                                     0.143 (MW) /      1.145 (MB)

	Size of irrep 0 of tIjAb amplitudes:       0.005 (MW) /      0.040 (MB)
	Size of irrep 1 of tIjAb amplitudes:       0.000 (MW) /      0.000 (MB)
	Size of irrep 2 of tIjAb amplitudes:       0.002 (MW) /      0.017 (MB)
	Size of irrep 3 of tIjAb amplitudes:       0.002 (MW) /      0.017 (MB)
	Total:                                     0.009 (MW) /      0.074 (MB)

	Nuclear Rep. energy          =      2.81094731305716
	SCF energy                   =    -38.29782199360671
	One-electron energy          =    -14.21657405744280
	Two-electron (AA) energy     =      2.35398347473243
	Two-electron (BB) energy     =      0.34632001846176
	Two-electron (AB) energy     =      3.70368592461632
	Two-electron energy          =      6.40398941781051
	Reference energy             =    -38.29782199360701

*** tstop() called on cqc05 at Thu Aug 20 19:58:18 2020
Module time:
	user time   =       0.44 seconds =       0.01 minutes
	system time =       0.27 seconds =       0.00 minutes
	total time  =          1 seconds =       0.02 minutes
Total time:
	user time   =       1.74 seconds =       0.03 minutes
	system time =       0.29 seconds =       0.00 minutes
	total time  =          1 seconds =       0.02 minutes

*** tstart() called on cqc05
*** at Thu Aug 20 19:58:18 2020

            **************************
            *                        *
            *        CCENERGY        *
            *                        *
            **************************

    Nuclear Rep. energy (wfn)     =    2.810947313057160
    SCF energy          (wfn)     =  -38.297821993606711
    Reference energy    (file100) =  -38.297821993607009

    Input parameters:
    -----------------
    Wave function   =     CCSD
    Reference wfn   =     UHF
    Brueckner       =     No
    Memory (Mbytes) =     250000.0
    Maxiter         =     50
    R_Convergence   =     1.0e-07
    E_Convergence   =     1.0e-06
    Restart         =     Yes
    DIIS            =     Yes
    AO Basis        =     NONE
    ABCD            =     NEW
    Cache Level     =     2
    Cache Type      =     LRU
    Print Level     =     1
    Num. of threads =     4
    # Amps to Print =     10
    Print MP2 Amps? =     No
    Analyze T2 Amps =     No
    Print Pair Ener =     No
    Local CC        =     No
    SCS-MP2         =     False
    SCSN-MP2        =     False
    SCS-CCSD        =     False

MP2 correlation energy -0.1330332152023665
                Solving CC Amplitude Equations
                ------------------------------
  Iter             Energy              RMS        T1Diag      D1Diag    New D1Diag    D2Diag
  ----     ---------------------    ---------   ----------  ----------  ----------   --------
     0        -0.133033215202374    0.000e+00    0.000000    0.000000    0.000000    0.000000
     1        -0.145205874906344    5.236e-02    0.014911    0.000000    0.000000    0.000000
     2        -0.150116105867889    2.168e-02    0.021802    0.000000    0.000000    0.000000
     3        -0.151176022487464    1.139e-02    0.027259    0.000000    0.000000    0.000000
     4        -0.151109182833087    5.081e-03    0.030177    0.000000    0.000000    0.000000
     5        -0.151101142158123    2.110e-03    0.031095    0.000000    0.000000    0.000000
     6        -0.151114433556215    9.319e-04    0.031314    0.000000    0.000000    0.000000
     7        -0.151120682684056    4.388e-04    0.031292    0.000000    0.000000    0.000000
     8        -0.151126162809104    2.196e-04    0.031278    0.000000    0.000000    0.000000
     9        -0.151125655908168    1.107e-04    0.031270    0.000000    0.000000    0.000000
    10        -0.151125035264508    5.130e-05    0.031258    0.000000    0.000000    0.000000
    11        -0.151125655589814    2.189e-05    0.031260    0.000000    0.000000    0.000000
    12        -0.151126122403471    1.087e-05    0.031259    0.000000    0.000000    0.000000
    13        -0.151126286830810    5.062e-06    0.031260    0.000000    0.000000    0.000000
    14        -0.151126282156639    2.486e-06    0.031260    0.000000    0.000000    0.000000
    15        -0.151126244873563    1.186e-06    0.031261    0.000000    0.000000    0.000000
    16        -0.151126230000965    5.543e-07    0.031261    0.000000    0.000000    0.000000
    17        -0.151126222614661    2.273e-07    0.031261    0.000000    0.000000    0.000000
    18        -0.151126222924714    1.082e-07    0.031261    0.000000    0.000000    0.000000
    19        -0.151126223383543    6.178e-08    0.031261    0.000000    0.000000    0.000000
    19        -0.151126223383543    6.178e-08    0.031261    0.000000    0.000000    0.000000

    Iterations converged.

    CCSD corr. energy   =   -0.151126223383543
    PPL corr. energy    =    0.041510943458867
    OS PPL corr. energy =    0.034511179442687
    SS PPL corr. energy =    0.006999764016182
    Largest TIA Amplitudes:
              3  49        -0.0409255288
              2  34        -0.0409250189
              3  50        -0.0140459987
              2  35        -0.0140458787
              1   1         0.0138944268
              0   1        -0.0076272327
              1  12         0.0072203109
              1   2        -0.0070113676
              1   5        -0.0063207922
              1   6        -0.0062660356

    Largest Tia Amplitudes:
              0   8         0.0140714564
              1   7         0.0139441258
              0   6        -0.0132371082
              0   3         0.0124682588
              1   5        -0.0109583626
              1   3         0.0106183866
              1  15        -0.0085479636
              0  10         0.0081155134
              1   6        -0.0072381701
              1   2         0.0071673449

    Largest TIJAB Amplitudes:
      3   2  49  34        -0.0413071361
      3   2  52  37        -0.0315878603
      3   2  49  37        -0.0295185665
      3   2  52  34        -0.0295185118
      3   2  27   4        -0.0227266122
      3   1  50   3        -0.0194321582
      2   1  35   3        -0.0194321348
      3   1  49   1         0.0188558695
      2   1  34   1         0.0188558217
      2   1  37   8        -0.0173610658

    Largest Tijab Amplitudes:
      1   0  36  35        -0.0093386535
      1   0  52  51        -0.0093386532
      1   0   7   6         0.0076240550
      1   0  56  51        -0.0074055899
      1   0  40  35        -0.0074055894
      1   0  55  51        -0.0073479019
      1   0  39  35        -0.0073479012
      1   0   6   1        -0.0072530871
      1   0  37  36         0.0061085315
      1   0  53  52         0.0061085309

    Largest TIjAb Amplitudes:
      1   1   8   8         0.0551944074
      1   1   3   3         0.0362835853
      1   1   3   8         0.0355465542
      1   1   8   3         0.0337355509
      1   1   7   7         0.0314591342

      * MP2 total energy                      =  -38.430855208809376
      * CCSD total energy                     =  -38.448948216990551
*** Psi4 exiting successfully. Buy a developer a beer!
