                               Psi4 1.4a3.dev88

  ==> Input File <==

--------------------------------------------------------------------------
# Any line starting with the # character is a comment line
memory 250000 mb
molecule molecule{
0 1
O         -0.7244270781        0.0593002388       -0.0313570792
O          0.7244270781       -0.0593002388       -0.0313570792
H         -0.9500122316       -0.7177793110        0.4977423786
H          0.9500122316        0.7177793110        0.4977423786
}

set {
  reference rhf
  basis aug-cc-pV(t+d)Z
  scf_type OUT_OF_CORE
  freeze_core true
}

energy('ccsd(t)')
--------------------------------------------------------------------------

    Molecular point group: c2

    Geometry (in Angstrom), charge = 0, multiplicity = 1:

       Center              X                  Y                   Z               Mass
    ------------   -----------------  -----------------  -----------------  -----------------
         O           -0.724427078100     0.059300238800    -0.031361985717    15.994914619570
         O            0.724427078100    -0.059300238800    -0.031361985717    15.994914619570
         H           -0.950012231600    -0.717779311000     0.497737472083     1.007825032230
         H            0.950012231600     0.717779311000     0.497737472083     1.007825032230

  Charge       = 0
  Multiplicity = 1
  Basis Set: AUG-CC-PV(T+D)Z
    Blend: AUG-CC-PV(T+D)Z

    Orbital Energies [Eh]
    ---------------------

    Doubly Occupied:

       1A    -20.634118     1B    -20.633836     2A     -1.476351
       2B     -1.215876     3A     -0.713498     3B     -0.712120
       4A     -0.609759     5A     -0.520323     4B     -0.488859

  @RHF Final Energy:  -150.83881479435132

   => Energetics <=

    Nuclear Repulsion Energy =             36.7917843434194651
    One-Electron Energy =                -281.2517190432073448
    Two-Electron Energy =                  93.6211199054365579
    Total Energy =                       -150.8388147943513218

  Dipole Moment: [D]
     X:     0.0000      Y:     0.0000      Z:     1.8780     Total:     1.8780

      * MP2 total energy                      = -151.347986517696597
      * CCSD total energy                     = -151.354042860581444
      * CCSD(T) total energy                  = -151.374260162673778
*** Psi4 exiting successfully. Buy a developer a beer!
