                               Psi4 1.4a3.dev88

  ==> Input File <==

--------------------------------------------------------------------------
# Any line starting with the # character is a comment line
memory 250000 mb
molecule molecule{
0 1
O         -0.7244270781        0.0593002388       -0.0313570792
O          0.7244270781       -0.0593002388       -0.0313570792
H         -0.9500122316       -0.7177793110        0.4977423786
H          0.9500122316        0.7177793110        0.4977423786
}

set {
  reference rhf
  basis aug-cc-pV(d+d)Z
  scf_type OUT_OF_CORE
  freeze_core true
}

energy('ccsd(t)')
--------------------------------------------------------------------------

    Molecular point group: c2

    Geometry (in Angstrom), charge = 0, multiplicity = 1:

       Center              X                  Y                   Z               Mass
    ------------   -----------------  -----------------  -----------------  -----------------
         O           -0.724427078100     0.059300238800    -0.031361985717    15.994914619570
         O            0.724427078100    -0.059300238800    -0.031361985717    15.994914619570
         H           -0.950012231600    -0.717779311000     0.497737472083     1.007825032230
         H            0.950012231600     0.717779311000     0.497737472083     1.007825032230

  Charge       = 0
  Multiplicity = 1
  Basis Set: AUG-CC-PV(D+D)Z
    Blend: AUG-CC-PV(D+D)Z

    Orbital Energies [Eh]
    ---------------------

    Doubly Occupied:

       1A    -20.643025     1B    -20.642742     2A     -1.480992
       2B     -1.220258     3A     -0.715260     3B     -0.713425
       4A     -0.611037     5A     -0.520750     4B     -0.488694

  @RHF Final Energy:  -150.80125170086040

   => Energetics <=

    Nuclear Repulsion Energy =             36.7917843434194651
    One-Electron Energy =                -281.1137068948248725
    Two-Electron Energy =                  93.5206708505450166
    Total Energy =                       -150.8012517008604050

  Dipole Moment: [D]
     X:     0.0000      Y:     0.0000      Z:     1.8971     Total:     1.8971

      * MP2 total energy                      = -151.217874351334103
      * CCSD total energy                     = -151.229856594874576
      * CCSD(T) total energy                  = -151.243002403624246
*** Psi4 exiting successfully. Buy a developer a beer!
