                               Psi4 1.4a3.dev88

  ==> Input File <==

--------------------------------------------------------------------------
# Any line starting with the # character is a comment line
memory 250000 mb
molecule molecule{
0 2
P          0.0000000000        0.0000000000        0.5093442540
O          0.0000000000        0.0000000000       -0.9860561446
}

set {
  reference uhf
  basis aug-cc-pV(d+d)Z
  scf_type OUT_OF_CORE
  freeze_core true
}

energy('ccsd(t)')
--------------------------------------------------------------------------

    Molecular point group: c2v

    Geometry (in Angstrom), charge = 0, multiplicity = 2:

       Center              X                  Y                   Z               Mass
    ------------   -----------------  -----------------  -----------------  -----------------
         P            0.000000000000     0.000000000000     0.509250066639    30.973761998420
         O            0.000000000000     0.000000000000    -0.986150331961    15.994914619570

  Charge       = 0
  Multiplicity = 2
  Basis Set: AUG-CC-PV(D+D)Z
    Blend: AUG-CC-PV(D+D)Z

    Orbital Energies [Eh]
    ---------------------

    Alpha Occupied:

       1A1   -80.045180     2A1   -20.605138     3A1    -7.580259
       1B2    -5.480362     1B1    -5.471026     4A1    -5.470015
       5A1    -1.363356     6A1    -0.771172     2B2    -0.602326
       7A1    -0.557047     2B1    -0.525565     3B2    -0.341078

    Alpha Virtual:

       3B1    -0.004171     8A1     0.067154     9A1     0.078519
       4B2     0.092971     4B1     0.104870    10A1     0.191388
      11A1     0.243867     5B2     0.250196     5B1     0.251934
       1A2     0.259704    12A1     0.260955     6B2     0.380564
      13A1     0.392288     6B1     0.396915    14A1     0.515359
       7B2     0.661999     7B1     0.680626    15A1     0.701743
       2A2     0.801756    16A1     0.802148     8B2     0.852669
       8B1     0.860493    17A1     0.871862     3A2     1.037292
      18A1     1.037570    19A1     1.140319     9B2     1.274874
       9B1     1.284281    20A1     1.499326    10B2     1.540304
      10B1     1.555337    21A1     1.703638    22A1     2.830952
       4A2     3.577733    23A1     3.577733    11B2     3.640712
      11B1     3.642978    24A1     3.684043    25A1     4.266480
       5A2     4.266792    12B1     4.348237    12B2     4.359397
      26A1     4.406226

    Beta Occupied:

       1A1   -80.039817     2A1   -20.593051     3A1    -7.573989
       1B1    -5.468222     4A1    -5.468133     1B2    -5.453515
       5A1    -1.333452     6A1    -0.714410     2B1    -0.517082
       7A1    -0.516699     2B2    -0.501315

    Beta Virtual:

       3B1     0.007053     3B2     0.039217     8A1     0.070338
       9A1     0.082116     4B1     0.108507     4B2     0.130725
      10A1     0.198778    11A1     0.249952     5B1     0.252577
       5B2     0.257044     1A2     0.289540    12A1     0.291232
      13A1     0.396185     6B1     0.399304     6B2     0.420020
      14A1     0.530017     7B1     0.685910    15A1     0.708463
       7B2     0.718093     2A2     0.838102    16A1     0.838643
       8B1     0.861771    17A1     0.875347     8B2     0.888330
       3A2     1.045011    18A1     1.045063    19A1     1.156346
       9B1     1.286703     9B2     1.300067    20A1     1.507375
      10B1     1.559538    10B2     1.577386    21A1     1.711024
      22A1     2.837039    23A1     3.601134     4A2     3.601832
      11B1     3.647629    11B2     3.663763    24A1     3.697517
      25A1     4.272637     5A2     4.273318    12B1     4.348851
      12B2     4.366829    26A1     4.409717

    Final Occupation by Irrep:
             A1    A2    B1    B2
    DOCC [     7,    0,    2,    2 ]
    SOCC [     0,    0,    0,    1 ]

  @UHF Final Energy:  -415.58887418395835

   => Energetics <=

    Nuclear Repulsion Energy =             42.4643896978027726
    One-Electron Energy =                -659.1143173982495682
    Two-Electron Energy =                 201.0610535164884709
    Total Energy =                       -415.5888741839583531

  UHF NO Occupations:
  HONO-2 :    2 B2 1.9966708
  HONO-1 :    7 A1 1.9937588
  HONO-0 :    3 B2 1.0000000
  LUNO+0 :    8 A1 0.0062412
  LUNO+1 :    4 B2 0.0033292
  LUNO+2 :    9 A1 0.0001238
  LUNO+3 :    3 B1 0.0000437

Computation Completed

Properties will be evaluated at   0.000000,   0.000000,   0.000000 [a0]

Properties computed using the SCF density matrix

  Nuclear Dipole Moment: [e a0]
     X:     0.0000      Y:     0.0000      Z:    -0.4733

  Electronic Dipole Moment: [e a0]
     X:     0.0000      Y:     0.0000      Z:     1.5129

  Dipole Moment: [e a0]
     X:     0.0000      Y:     0.0000      Z:     1.0397     Total:     1.0397

  Dipole Moment: [D]
     X:     0.0000      Y:     0.0000      Z:     2.6425     Total:     2.6425

*** tstop() called on n412-039.vsc4.prov at Tue Jan 26 18:34:53 2021
Module time:
	user time   =      35.36 seconds =       0.59 minutes
	system time =       1.64 seconds =       0.03 minutes
	total time  =          4 seconds =       0.07 minutes
Total time:
	user time   =      35.36 seconds =       0.59 minutes
	system time =       1.64 seconds =       0.03 minutes
	total time  =          4 seconds =       0.07 minutes

*** tstart() called on n412-039.vsc4.prov
*** at Tue Jan 26 18:34:53 2021

	Wfn Parameters:
	--------------------
	Wavefunction         = CCSD_T
	Number of irreps     = 4
	Number of MOs        = 55
	Number of active MOs = 49
	AO-Basis             = NONE
	Semicanonical        = false
	Reference            = UHF
	Print Level          = 1

	IRREP	# MOs	# FZDC	# DOCC	# SOCC	# VIRT	# FZVR
	-----	-----	------	------	------	------	------
	 A1	   26	    4	    3	    0	    19	    0
	 A2	   5	    0	    0	    0	    5	    0
	 B1	   12	    1	    1	    0	    10	    0
	 B2	   12	    1	    1	    1	    9	    0
	Transforming integrals...
	IWL integrals will be deleted.
	(OO|OO)...
	Presorting SO-basis two-electron integrals.
	Sorting File: SO Ints (nn|nn) nbuckets = 1
	Constructing frozen core operators
	Starting AA/AB first half-transformation.
	Sorting AA/AB half-transformed integrals.
	Starting BB first half-transformation.
	Sorting BB half-transformed integrals.
	First half integral transformation complete.
	Starting AA second half-transformation.
	Starting AB second half-transformation.
	Starting BB second half-transformation.
	Two-electron integral transformation complete.
	(OO|OV)...
	Starting AA second half-transformation.
	Starting AB second half-transformation.
	Starting BB second half-transformation.
	Two-electron integral transformation complete.
	(OO|VV)...
	Starting AA second half-transformation.
	Starting AB second half-transformation.
	Starting BB second half-transformation.
	Two-electron integral transformation complete.
	(OV|OO)...
	Starting AA/AB first half-transformation.
	Sorting AA/AB half-transformed integrals.
	Starting BB first half-transformation.
	Sorting BB half-transformed integrals.
	First half integral transformation complete.
	Starting AA second half-transformation.
	Starting AB second half-transformation.
	Starting BB second half-transformation.
	Two-electron integral transformation complete.
	(OV|OV)...
	Starting AA second half-transformation.
	Starting AB second half-transformation.
	Starting BB second half-transformation.
	Two-electron integral transformation complete.
	(OV|VV)...
	Starting AA second half-transformation.
	Starting AB second half-transformation.
	Starting BB second half-transformation.
	Two-electron integral transformation complete.
	(VV|OO)...
	Starting AA/AB first half-transformation.
	Sorting AA/AB half-transformed integrals.
	Starting BB first half-transformation.
	Sorting BB half-transformed integrals.
	First half integral transformation complete.
	Starting AA second half-transformation.
	Starting AB second half-transformation.
	Starting BB second half-transformation.
	Two-electron integral transformation complete.
	(VV|OV)...
	Starting AA second half-transformation.
	Starting AB second half-transformation.
	Starting BB second half-transformation.
	Two-electron integral transformation complete.
	(VV|VV)...
	Starting AA second half-transformation.
	Starting AB second half-transformation.
	Starting BB second half-transformation.
	Two-electron integral transformation complete.
	Frozen core energy     =   -425.31231577356198

	Size of irrep 0 of <AB|CD> integrals:      0.069 (MW) /      0.549 (MB)
	Size of irrep 1 of <AB|CD> integrals:      0.034 (MW) /      0.274 (MB)
	Size of irrep 2 of <AB|CD> integrals:      0.055 (MW) /      0.442 (MB)
	Size of irrep 3 of <AB|CD> integrals:      0.049 (MW) /      0.391 (MB)
	Total:                                     0.207 (MW) /      1.655 (MB)

	Size of irrep 0 of <ab|cd> integrals:      0.073 (MW) /      0.588 (MB)
	Size of irrep 1 of <ab|cd> integrals:      0.038 (MW) /      0.304 (MB)
	Size of irrep 2 of <ab|cd> integrals:      0.058 (MW) /      0.461 (MB)
	Size of irrep 3 of <ab|cd> integrals:      0.058 (MW) /      0.461 (MB)
	Total:                                     0.227 (MW) /      1.813 (MB)

	Size of irrep 0 of <Ab|Cd> integrals:      0.332 (MW) /      2.654 (MB)
	Size of irrep 1 of <Ab|Cd> integrals:      0.144 (MW) /      1.155 (MB)
	Size of irrep 2 of <Ab|Cd> integrals:      0.226 (MW) /      1.805 (MB)
	Size of irrep 3 of <Ab|Cd> integrals:      0.213 (MW) /      1.700 (MB)
	Total:                                     0.914 (MW) /      7.315 (MB)

	Size of irrep 0 of <IA|BC> integrals:      0.048 (MW) /      0.386 (MB)
	Size of irrep 1 of <IA|BC> integrals:      0.016 (MW) /      0.130 (MB)
	Size of irrep 2 of <IA|BC> integrals:      0.028 (MW) /      0.222 (MB)
	Size of irrep 3 of <IA|BC> integrals:      0.031 (MW) /      0.248 (MB)
	Total:                                     0.123 (MW) /      0.985 (MB)

	Size of irrep 0 of <ia|bc> integrals:      0.045 (MW) /      0.361 (MB)
	Size of irrep 1 of <ia|bc> integrals:      0.014 (MW) /      0.109 (MB)
	Size of irrep 2 of <ia|bc> integrals:      0.026 (MW) /      0.207 (MB)
	Size of irrep 3 of <ia|bc> integrals:      0.026 (MW) /      0.207 (MB)
	Total:                                     0.111 (MW) /      0.885 (MB)

	Size of irrep 0 of <Ia|Bc> integrals:      0.050 (MW) /      0.401 (MB)
	Size of irrep 1 of <Ia|Bc> integrals:      0.017 (MW) /      0.137 (MB)
	Size of irrep 2 of <Ia|Bc> integrals:      0.028 (MW) /      0.224 (MB)
	Size of irrep 3 of <Ia|Bc> integrals:      0.034 (MW) /      0.269 (MB)
	Total:                                     0.129 (MW) /      1.031 (MB)

	Size of irrep 0 of <iA|bC> integrals:      0.044 (MW) /      0.350 (MB)
	Size of irrep 1 of <iA|bC> integrals:      0.013 (MW) /      0.103 (MB)
	Size of irrep 2 of <iA|bC> integrals:      0.026 (MW) /      0.205 (MB)
	Size of irrep 3 of <iA|bC> integrals:      0.024 (MW) /      0.188 (MB)
	Total:                                     0.106 (MW) /      0.847 (MB)

	Size of irrep 0 of tIjAb amplitudes:       0.007 (MW) /      0.055 (MB)
	Size of irrep 1 of tIjAb amplitudes:       0.001 (MW) /      0.009 (MB)
	Size of irrep 2 of tIjAb amplitudes:       0.003 (MW) /      0.023 (MB)
	Size of irrep 3 of tIjAb amplitudes:       0.004 (MW) /      0.033 (MB)
	Total:                                     0.015 (MW) /      0.120 (MB)

	Nuclear Rep. energy          =     42.46438969780277
	SCF energy                   =   -415.58887418395835
	One-electron energy          =    -57.73839367143165
	Two-electron (AA) energy     =      5.99034931060190
	Two-electron (BB) energy     =      4.31067214857716
	Two-electron (AB) energy     =     14.69642410405370
	Two-electron energy          =     24.99744556323276
	Reference energy             =   -415.58887418395807

*** tstop() called on n412-039.vsc4.prov at Tue Jan 26 18:34:55 2021
Module time:
	user time   =       0.16 seconds =       0.00 minutes
	system time =       0.38 seconds =       0.01 minutes
	total time  =          2 seconds =       0.03 minutes
Total time:
	user time   =      35.52 seconds =       0.59 minutes
	system time =       2.02 seconds =       0.03 minutes
	total time  =          6 seconds =       0.10 minutes
            **************************
            *                        *
            *        CCENERGY        *
            *                        *
            **************************

    Nuclear Rep. energy (wfn)     =   42.464389697802773
    SCF energy          (wfn)     = -415.588874183958353
    Reference energy    (file100) = -415.588874183958069

    Input parameters:
    -----------------
    Wave function   =     CCSD_T
    Reference wfn   =     UHF
    Brueckner       =     No
    Memory (Mbytes) =     250000.0
    Maxiter         =     50
    R_Convergence   =     1.0e-07
    E_Convergence   =     1.0e-06
    Restart         =     Yes
    DIIS            =     Yes
    AO Basis        =     NONE
    ABCD            =     NEW
    Cache Level     =     2
    Cache Type      =     LRU
    Print Level     =     1
    Num. of threads =     48
    # Amps to Print =     10
    Print MP2 Amps? =     No
    Analyze T2 Amps =     No
    Print Pair Ener =     No
    Local CC        =     No
    SCS-MP2         =     False
    SCSN-MP2        =     False
    SCS-CCSD        =     False

MP2 correlation energy -0.3038010888578444
                Solving CC Amplitude Equations
                ------------------------------
  Iter             Energy              RMS        T1Diag      D1Diag    New D1Diag    D2Diag
  ----     ---------------------    ---------   ----------  ----------  ----------   --------
     0        -0.303801088857844    0.000e+00    0.000000    0.000000    0.000000    0.000000
     1        -0.294960662585211    1.231e-01    0.030073    0.000000    0.000000    0.000000
     2        -0.308285007309344    4.756e-02    0.026947    0.000000    0.000000    0.000000
     3        -0.313054224356116    2.464e-02    0.034494    0.000000    0.000000    0.000000
     4        -0.312836221296428    6.400e-03    0.036534    0.000000    0.000000    0.000000
     5        -0.312838252890967    2.787e-03    0.037441    0.000000    0.000000    0.000000
     6        -0.312850573123548    9.878e-04    0.037693    0.000000    0.000000    0.000000
     7        -0.312837069535382    4.268e-04    0.037758    0.000000    0.000000    0.000000
     8        -0.312837577929602    1.642e-04    0.037775    0.000000    0.000000    0.000000
     9        -0.312840234612507    7.946e-05    0.037778    0.000000    0.000000    0.000000
    10        -0.312837954944700    4.218e-05    0.037778    0.000000    0.000000    0.000000
    11        -0.312838775371669    2.030e-05    0.037774    0.000000    0.000000    0.000000
    12        -0.312838666503711    8.791e-06    0.037776    0.000000    0.000000    0.000000
    13        -0.312838639322170    3.751e-06    0.037775    0.000000    0.000000    0.000000
    14        -0.312838789063161    1.726e-06    0.037775    0.000000    0.000000    0.000000
    15        -0.312838746318305    8.130e-07    0.037775    0.000000    0.000000    0.000000
    16        -0.312838737417945    3.626e-07    0.037775    0.000000    0.000000    0.000000
    17        -0.312838742324827    1.365e-07    0.037775    0.000000    0.000000    0.000000
    18        -0.312838740128587    6.395e-08    0.037775    0.000000    0.000000    0.000000

    Iterations converged.

    Largest TIA Amplitudes:
              3  24         0.0600653843
              3  25         0.0240959037
              4  36        -0.0229460143
              4  35        -0.0194023384
              2   2         0.0172744728
              2   4         0.0163915824
              3  31        -0.0149357434
              1   4        -0.0140701387
              5  34         0.0127468096
              2   5        -0.0108460735

    Largest Tia Amplitudes:
              4  34         0.0523248754
              3  24         0.0437689411
              4  35         0.0367812100
              3  25         0.0205318417
              1   2         0.0180186915
              3  31        -0.0163825402
              4  41        -0.0136358070
              1   5        -0.0123501382
              1   3        -0.0108342337
              1   0        -0.0092629142

    Largest TIJAB Amplitudes:
      3   2  24   2        -0.0205489504
      5   3  36  24         0.0193030239
      5   2  36   2         0.0164492693
      5   3  19   4        -0.0146082029
      5   3  38  24         0.0124527633
      3   2  24   6         0.0123039568
      5   2  38   2         0.0121262680
      4   3  21  10         0.0115241332
      3   2  24   7         0.0113723265
      3   2  24   3         0.0111381007

    Largest Tijab Amplitudes:
      4   3  34  24        -0.0280524079
      4   3  35  24        -0.0192869920
      3   2  24   2        -0.0190980382
      4   2  34   2        -0.0155146944
      4   3  37  24         0.0135360153
      3   2  24   3         0.0129883758
      3   2  24   6         0.0123968849
      4   3  34  25        -0.0119382169
      4   3  36  24         0.0114928134
      4   3  34  27         0.0112677030

    Largest TIjAb Amplitudes:
      3   3  24  24        -0.0753490596
      2   2  24  24        -0.0442166552
      3   4  24  34        -0.0413103340
      3   3  24  27         0.0337484035
      3   3  24  25        -0.0335132736
      1   2  24  24         0.0324293442
      3   3  27  24         0.0307116738
      1   1  24  24        -0.0300958950
      5   2  19  24        -0.0300653966
      3   3  25  24        -0.0291649206

    SCF energy       (wfn)                    = -415.588874183958353
    Reference energy (file100)                = -415.588874183958069

    Opposite-spin MP2 correlation energy      =   -0.222157939147583
    Same-spin MP2 correlation energy          =   -0.081643149710261
    Singles MP2 correlation energy            =   -0.000000000000000
    MP2 correlation energy                    =   -0.303801088857844
      * MP2 total energy                      = -415.892675272815893

    Opposite-spin CCSD correlation energy     =   -0.243534999277915
    Same-spin CCSD correlation energy         =   -0.069303740850671
    Singles CCSD correlation energy           =   -0.000000000000000
    CCSD correlation energy                   =   -0.312838740128587
      * CCSD total energy                     = -415.901712924086667

      * CCSD(T) total energy                     = -415.915681485161315
*** Psi4 exiting successfully. Buy a developer a beer!
