                               Psi4 1.4a3.dev88

  ==> Input File <==

--------------------------------------------------------------------------
# Any line starting with the # character is a comment line
memory 250000 mb
molecule molecule{
0 2
P          0.0000000000        0.0000000000        0.5093442540
O          0.0000000000        0.0000000000       -0.9860561446
}

set {
  reference uhf
  basis aug-cc-pV(t+d)Z
  scf_type OUT_OF_CORE
  freeze_core true
}

energy('ccsd(t)')
--------------------------------------------------------------------------

    Molecular point group: c2v

    Geometry (in Angstrom), charge = 0, multiplicity = 2:

       Center              X                  Y                   Z               Mass
    ------------   -----------------  -----------------  -----------------  -----------------
         P            0.000000000000     0.000000000000     0.509250066639    30.973761998420
         O            0.000000000000     0.000000000000    -0.986150331961    15.994914619570

  Charge       = 0
  Multiplicity = 2
  Basis Set: AUG-CC-PV(T+D)Z
    Blend: AUG-CC-PV(T+D)Z

    Orbital Energies [Eh]
    ---------------------

    Alpha Occupied:

       1A1   -80.033796     2A1   -20.595204     3A1    -7.570352
       1B2    -5.471381     1B1    -5.460673     4A1    -5.458766
       5A1    -1.357831     6A1    -0.767403     2B2    -0.601054
       7A1    -0.556488     2B1    -0.527846     3B2    -0.343649

    Alpha Virtual:

       3B1    -0.004022     8A1     0.059134     9A1     0.069065
       4B2     0.077703     4B1     0.087543    10A1     0.155869
      11A1     0.192403     1A2     0.192459    12A1     0.204589
       5B2     0.205366     5B1     0.205910     6B2     0.280929
       6B1     0.288647    13A1     0.324043    14A1     0.357264
       7B2     0.473594     7B1     0.487486    15A1     0.514264
       2A2     0.536748    16A1     0.537099     8B2     0.607654
      17A1     0.616443     3A2     0.616811     8B1     0.620650
       9B2     0.626027     9B1     0.626690    18A1     0.648244
      19A1     0.754238    10B2     0.783049    10B1     0.785393
      11B2     0.875372    11B1     0.882138     4A2     0.892465
      20A1     0.892468    21A1     0.977719    22A1     1.059468
      12B1     1.310827    12B2     1.311996    23A1     1.386583
      24A1     1.544953     5A2     1.545004    13B1     1.599586
      13B2     1.602954    25A1     1.689101    26A1     1.754553
       6A2     1.761431    27A1     1.765395    14B1     1.822464
      14B2     1.822474    15B1     1.865099    15B2     1.867466
      16B1     2.110354    16B2     2.110354    28A1     2.298858
       7A2     2.325258    29A1     2.325544    17B2     2.415969
      17B1     2.419262     8A2     2.455251    30A1     2.455394
      31A1     2.477993    18B1     2.493797    18B2     2.495735
      32A1     2.781729    19B1     3.052852    19B2     3.060221
      33A1     3.641800    20B2     4.447921    20B1     4.458835
      34A1     4.565277    35A1     5.327815     9A2     6.145218
      36A1     6.145296    21B1     6.330475    21B2     6.339744
      22B1     6.502092    22B2     6.502093    37A1     6.608393
      10A2     6.608640    38A1     6.694506    23B1     6.780725
      23B2     6.788390    11A2     7.084651    39A1     7.084676
      40A1     7.266101    24B1     7.340330    24B2     7.342327
      41A1     7.880991    42A1    11.519815

    Beta Occupied:

       1A1   -80.028439     2A1   -20.582176     3A1    -7.564180
       1B1    -5.458550     4A1    -5.457182     1B2    -5.443496
       5A1    -1.325025     6A1    -0.710459     7A1    -0.516297
       2B1    -0.512487     2B2    -0.500392

    Beta Virtual:

       3B1     0.006182     3B2     0.038081     8A1     0.062021
       9A1     0.070863     4B1     0.089814     4B2     0.110914
      10A1     0.161000     5B1     0.206786    11A1     0.207958
       1A2     0.208040     5B2     0.209880    12A1     0.210398
       6B1     0.290428     6B2     0.303904    13A1     0.325436
      14A1     0.367664     7B1     0.490051     7B2     0.517529
      15A1     0.521206     2A2     0.572459    16A1     0.574512
       8B1     0.619953    17A1     0.626637     3A2     0.627673
       8B2     0.638239     9B1     0.638387     9B2     0.645124
      18A1     0.649713    19A1     0.762883    10B1     0.788766
      10B2     0.809290    11B1     0.885223    11B2     0.895078
       4A2     0.898134    20A1     0.898225    21A1     0.984878
      22A1     1.072691    12B1     1.312889    12B2     1.326108
      23A1     1.397282     5A2     1.565984    24A1     1.567083
      13B1     1.601050    13B2     1.630305    25A1     1.693021
      26A1     1.755318     6A2     1.774354    27A1     1.779915
      14B1     1.846276    14B2     1.848438    15B1     1.870463
      15B2     1.897181    16B1     2.112830    16B2     2.112835
      28A1     2.306118     7A2     2.343621    29A1     2.343861
      17B1     2.422509    17B2     2.450726     8A2     2.460915
      30A1     2.461514    31A1     2.486754    18B1     2.495732
      18B2     2.512226    32A1     2.790021    19B1     3.054197
      19B2     3.071322    33A1     3.646862    20B1     4.468301
      20B2     4.485505    34A1     4.574181    35A1     5.335027
       9A2     6.152106    36A1     6.152353    21B1     6.331631
      21B2     6.348532    22B1     6.515770    22B2     6.515774
      37A1     6.617355    10A2     6.618258    38A1     6.701827
      23B1     6.784456    23B2     6.799559    39A1     7.111515
      11A2     7.111719    40A1     7.274962    24B1     7.348074
      24B2     7.366122    41A1     7.887369    42A1    11.531726

    Final Occupation by Irrep:
             A1    A2    B1    B2
    DOCC [     7,    0,    2,    2 ]
    SOCC [     0,    0,    0,    1 ]

  @UHF Final Energy:  -415.62513318560309

   => Energetics <=

    Nuclear Repulsion Energy =             42.4643896978027726
    One-Electron Energy =                -659.3359203691566108
    Two-Electron Energy =                 201.2463974857507765
    Total Energy =                       -415.6251331856030902

  UHF NO Occupations:
  HONO-2 :    2 B2 1.9963896
  HONO-1 :    7 A1 1.9924122
  HONO-0 :    3 B2 1.0000000
  LUNO+0 :    8 A1 0.0075878
  LUNO+1 :    4 B2 0.0036104
  LUNO+2 :    3 B1 0.0004236
  LUNO+3 :    9 A1 0.0001426

Computation Completed

Properties will be evaluated at   0.000000,   0.000000,   0.000000 [a0]

Properties computed using the SCF density matrix

  Nuclear Dipole Moment: [e a0]
     X:     0.0000      Y:     0.0000      Z:    -0.4733

  Electronic Dipole Moment: [e a0]
     X:     0.0000      Y:     0.0000      Z:     1.5261

  Dipole Moment: [e a0]
     X:     0.0000      Y:     0.0000      Z:     1.0528     Total:     1.0528

  Dipole Moment: [D]
     X:     0.0000      Y:     0.0000      Z:     2.6761     Total:     2.6761

*** tstop() called on n412-040.vsc4.prov at Tue Jan 26 18:29:25 2021
Module time:
	user time   =      53.00 seconds =       0.88 minutes
	system time =       3.04 seconds =       0.05 minutes
	total time  =         10 seconds =       0.17 minutes
Total time:
	user time   =      53.00 seconds =       0.88 minutes
	system time =       3.04 seconds =       0.05 minutes
	total time  =         10 seconds =       0.17 minutes

*** tstart() called on n412-040.vsc4.prov
*** at Tue Jan 26 18:29:25 2021

	Wfn Parameters:
	--------------------
	Wavefunction         = CCSD_T
	Number of irreps     = 4
	Number of MOs        = 101
	Number of active MOs = 95
	AO-Basis             = NONE
	Semicanonical        = false
	Reference            = UHF
	Print Level          = 1

	IRREP	# MOs	# FZDC	# DOCC	# SOCC	# VIRT	# FZVR
	-----	-----	------	------	------	------	------
	 A1	   42	    4	    3	    0	    35	    0
	 A2	   11	    0	    0	    0	    11	    0
	 B1	   24	    1	    1	    0	    22	    0
	 B2	   24	    1	    1	    1	    21	    0
	Transforming integrals...
	IWL integrals will be deleted.
	(OO|OO)...
	Presorting SO-basis two-electron integrals.
	Sorting File: SO Ints (nn|nn) nbuckets = 1
	Constructing frozen core operators
	Starting AA/AB first half-transformation.
	Sorting AA/AB half-transformed integrals.
	Starting BB first half-transformation.
	Sorting BB half-transformed integrals.
	First half integral transformation complete.
	Starting AA second half-transformation.
	Starting AB second half-transformation.
	Starting BB second half-transformation.
	Two-electron integral transformation complete.
	(OO|OV)...
	Starting AA second half-transformation.
	Starting AB second half-transformation.
	Starting BB second half-transformation.
	Two-electron integral transformation complete.
	(OO|VV)...
	Starting AA second half-transformation.
	Starting AB second half-transformation.
	Starting BB second half-transformation.
	Two-electron integral transformation complete.
	(OV|OO)...
	Starting AA/AB first half-transformation.
	Sorting AA/AB half-transformed integrals.
	Starting BB first half-transformation.
	Sorting BB half-transformed integrals.
	First half integral transformation complete.
	Starting AA second half-transformation.
	Starting AB second half-transformation.
	Starting BB second half-transformation.
	Two-electron integral transformation complete.
	(OV|OV)...
	Starting AA second half-transformation.
	Starting AB second half-transformation.
	Starting BB second half-transformation.
	Two-electron integral transformation complete.
	(OV|VV)...
	Starting AA second half-transformation.
	Starting AB second half-transformation.
	Starting BB second half-transformation.
	Two-electron integral transformation complete.
	(VV|OO)...
	Starting AA/AB first half-transformation.
	Sorting AA/AB half-transformed integrals.
	Starting BB first half-transformation.
	Sorting BB half-transformed integrals.
	First half integral transformation complete.
	Starting AA second half-transformation.
	Starting AB second half-transformation.
	Starting BB second half-transformation.
	Two-electron integral transformation complete.
	(VV|OV)...
	Starting AA second half-transformation.
	Starting AB second half-transformation.
	Starting BB second half-transformation.
	Two-electron integral transformation complete.
	(VV|VV)...
	Starting AA second half-transformation.
	Starting AB second half-transformation.
	Starting BB second half-transformation.
	Two-electron integral transformation complete.
	Frozen core energy     =   -425.31597851422600

	Size of irrep 0 of <AB|CD> integrals:      1.190 (MW) /      9.522 (MB)
	Size of irrep 1 of <AB|CD> integrals:      0.717 (MW) /      5.739 (MB)
	Size of irrep 2 of <AB|CD> integrals:      1.002 (MW) /      8.016 (MB)
	Size of irrep 3 of <AB|CD> integrals:      0.955 (MW) /      7.636 (MB)
	Total:                                     3.864 (MW) /     30.914 (MB)

	Size of irrep 0 of <ab|cd> integrals:      1.237 (MW) /      9.892 (MB)
	Size of irrep 1 of <ab|cd> integrals:      0.755 (MW) /      6.041 (MB)
	Size of irrep 2 of <ab|cd> integrals:      1.024 (MW) /      8.193 (MB)
	Size of irrep 3 of <ab|cd> integrals:      1.024 (MW) /      8.193 (MB)
	Total:                                     4.040 (MW) /     32.320 (MB)

	Size of irrep 0 of <Ab|Cd> integrals:      5.253 (MW) /     42.026 (MB)
	Size of irrep 1 of <Ab|Cd> integrals:      2.945 (MW) /     23.557 (MB)
	Size of irrep 2 of <Ab|Cd> integrals:      4.052 (MW) /     32.417 (MB)
	Size of irrep 3 of <Ab|Cd> integrals:      3.956 (MW) /     31.649 (MB)
	Total:                                    16.206 (MW) /    129.650 (MB)

	Size of irrep 0 of <IA|BC> integrals:      0.384 (MW) /      3.070 (MB)
	Size of irrep 1 of <IA|BC> integrals:      0.166 (MW) /      1.328 (MB)
	Size of irrep 2 of <IA|BC> integrals:      0.246 (MW) /      1.970 (MB)
	Size of irrep 3 of <IA|BC> integrals:      0.281 (MW) /      2.251 (MB)
	Total:                                     1.077 (MW) /      8.619 (MB)

	Size of irrep 0 of <ia|bc> integrals:      0.345 (MW) /      2.758 (MB)
	Size of irrep 1 of <ia|bc> integrals:      0.134 (MW) /      1.071 (MB)
	Size of irrep 2 of <ia|bc> integrals:      0.227 (MW) /      1.814 (MB)
	Size of irrep 3 of <ia|bc> integrals:      0.227 (MW) /      1.814 (MB)
	Total:                                     0.932 (MW) /      7.456 (MB)

	Size of irrep 0 of <Ia|Bc> integrals:      0.392 (MW) /      3.135 (MB)
	Size of irrep 1 of <Ia|Bc> integrals:      0.170 (MW) /      1.359 (MB)
	Size of irrep 2 of <Ia|Bc> integrals:      0.248 (MW) /      1.981 (MB)
	Size of irrep 3 of <Ia|Bc> integrals:      0.292 (MW) /      2.339 (MB)
	Total:                                     1.102 (MW) /      8.814 (MB)

	Size of irrep 0 of <iA|bC> integrals:      0.339 (MW) /      2.714 (MB)
	Size of irrep 1 of <iA|bC> integrals:      0.130 (MW) /      1.043 (MB)
	Size of irrep 2 of <iA|bC> integrals:      0.225 (MW) /      1.804 (MB)
	Size of irrep 3 of <iA|bC> integrals:      0.217 (MW) /      1.734 (MB)
	Total:                                     0.912 (MW) /      7.295 (MB)

	Size of irrep 0 of tIjAb amplitudes:       0.028 (MW) /      0.220 (MB)
	Size of irrep 1 of tIjAb amplitudes:       0.005 (MW) /      0.041 (MB)
	Size of irrep 2 of tIjAb amplitudes:       0.012 (MW) /      0.097 (MB)
	Size of irrep 3 of tIjAb amplitudes:       0.018 (MW) /      0.143 (MB)
	Total:                                     0.063 (MW) /      0.501 (MB)

	Nuclear Rep. energy          =     42.46438969780277
	SCF energy                   =   -415.62513318560309
	One-electron energy          =    -57.82815798034618
	Two-electron (AA) energy     =      6.01101285152754
	Two-electron (BB) energy     =      4.31247672587958
	Two-electron (AB) energy     =     14.73112403375808
	Two-electron energy          =     25.05461361116520
	Reference energy             =   -415.62513318560423

*** tstop() called on n412-040.vsc4.prov at Tue Jan 26 18:29:36 2021
Module time:
	user time   =       2.93 seconds =       0.05 minutes
	system time =       1.57 seconds =       0.03 minutes
	total time  =         11 seconds =       0.18 minutes
Total time:
	user time   =      55.93 seconds =       0.93 minutes
	system time =       4.61 seconds =       0.08 minutes
	total time  =         21 seconds =       0.35 minutes
            **************************
            *                        *
            *        CCENERGY        *
            *                        *
            **************************

    Nuclear Rep. energy (wfn)     =   42.464389697802773
    SCF energy          (wfn)     = -415.625133185603090
    Reference energy    (file100) = -415.625133185604227

    Input parameters:
    -----------------
    Wave function   =     CCSD_T
    Reference wfn   =     UHF
    Brueckner       =     No
    Memory (Mbytes) =     250000.0
    Maxiter         =     50
    R_Convergence   =     1.0e-07
    E_Convergence   =     1.0e-06
    Restart         =     Yes
    DIIS            =     Yes
    AO Basis        =     NONE
    ABCD            =     NEW
    Cache Level     =     2
    Cache Type      =     LRU
    Print Level     =     1
    Num. of threads =     48
    # Amps to Print =     10
    Print MP2 Amps? =     No
    Analyze T2 Amps =     No
    Print Pair Ener =     No
    Local CC        =     No
    SCS-MP2         =     False
    SCSN-MP2        =     False
    SCS-CCSD        =     False

MP2 correlation energy -0.3656366932291179
                Solving CC Amplitude Equations
                ------------------------------
  Iter             Energy              RMS        T1Diag      D1Diag    New D1Diag    D2Diag
  ----     ---------------------    ---------   ----------  ----------  ----------   --------
     0        -0.365636693229118    0.000e+00    0.000000    0.000000    0.000000    0.000000
     1        -0.352616832575099    1.204e-01    0.028673    0.000000    0.000000    0.000000
     2        -0.367079402832243    4.845e-02    0.025773    0.000000    0.000000    0.000000
     3        -0.372021053187893    2.479e-02    0.033143    0.000000    0.000000    0.000000
     4        -0.371647931104699    7.181e-03    0.035527    0.000000    0.000000    0.000000
     5        -0.371665653470650    3.336e-03    0.036745    0.000000    0.000000    0.000000
     6        -0.371682007994535    1.256e-03    0.037087    0.000000    0.000000    0.000000
     7        -0.371667944174251    5.852e-04    0.037164    0.000000    0.000000    0.000000
     8        -0.371674651261154    2.717e-04    0.037196    0.000000    0.000000    0.000000
     9        -0.371679145759669    1.333e-04    0.037198    0.000000    0.000000    0.000000
    10        -0.371675013128256    6.398e-05    0.037197    0.000000    0.000000    0.000000
    11        -0.371676406222985    2.906e-05    0.037191    0.000000    0.000000    0.000000
    12        -0.371676128707066    1.294e-05    0.037194    0.000000    0.000000    0.000000
    13        -0.371676150605579    5.724e-06    0.037194    0.000000    0.000000    0.000000
    14        -0.371676375224079    2.736e-06    0.037194    0.000000    0.000000    0.000000
    15        -0.371676298536967    1.253e-06    0.037194    0.000000    0.000000    0.000000
    16        -0.371676291263989    5.691e-07    0.037194    0.000000    0.000000    0.000000
    17        -0.371676289533829    2.197e-07    0.037194    0.000000    0.000000    0.000000
    18        -0.371676285837989    9.693e-08    0.037194    0.000000    0.000000    0.000000

    Iterations converged.

    Largest TIA Amplitudes:
              3  46         0.0628819339
              3  47         0.0261108080
              4  70        -0.0184331953
              2   2        -0.0158136940
              2   3        -0.0155383791
              4  69         0.0147569266
              4  72         0.0141438240
              2   8        -0.0134210796
              1   8        -0.0128837137
              3  50        -0.0123566028

    Largest Tia Amplitudes:
              4  68        -0.0468266353
              4  69         0.0391201689
              3  46         0.0328000510
              3  47         0.0172454437
              1   2        -0.0154359862
              1   6         0.0140891425
              4  72        -0.0134007910
              3  55        -0.0114857145
              1   4        -0.0105616413
              3  50        -0.0100082663

    Largest TIJAB Amplitudes:
      3   2  46   2         0.0177542169
      3   2  46   6        -0.0157666252
      5   3  72  46        -0.0150024288
      5   2  72   2         0.0137813378
      5   3  70  46         0.0128790344
      5   3  36   8        -0.0119921445
      3   2  46   7        -0.0116017282
      5   3  74  46         0.0110327213
      3   2  46   4         0.0109785452
      5   2  72   7        -0.0105593759

    Largest Tijab Amplitudes:
      4   3  68  46         0.0262203484
      4   3  69  46        -0.0200674212
      3   2  46   2         0.0171954045
      3   2  46   6        -0.0157857522
      4   3  71  46         0.0128329416
      4   2  68   2        -0.0127822058
      4   2  68   6         0.0127595874
      3   2  46   7        -0.0121105033

      * MP2 total energy                      = -415.990769878833362
      * CCSD total energy                     = -415.996809471442191
      * CCSD(T) total energy                     = -416.016985760067428
*** Psi4 exiting successfully. Buy a developer a beer!
