                               Psi4 1.4a3.dev88

  ==> Input File <==

--------------------------------------------------------------------------
# Any line starting with the # character is a comment line
memory 250000 mb
molecule molecule{
0 2
C          0.0000000000        0.0000000000        0.6422282651
N          0.0000000000        0.0000000000       -0.5507224180
}

set {
  reference uhf
  basis aug-cc-pV(t+d)Z
  scf_type OUT_OF_CORE
  freeze_core true
}

energy('ccsd(t)')
--------------------------------------------------------------------------

    Molecular point group: c2v

    Geometry (in Angstrom), charge = 0, multiplicity = 2:

       Center              X                  Y                   Z               Mass
    ------------   -----------------  -----------------  -----------------  -----------------
         C            0.000000000000     0.000000000000     0.642423149518    12.000000000000
         N            0.000000000000     0.000000000000    -0.550527533582    14.003074004430

  Charge       = 0
  Multiplicity = 2
  Basis Set: AUG-CC-PV(T+D)Z
    Blend: AUG-CC-PV(T+D)Z

    Orbital Energies [Eh]
    ---------------------

    Alpha Occupied:

       1A1   -15.609328     2A1   -11.361877     3A1    -1.231161
       4A1    -0.746065     5A1    -0.564942     1B1    -0.515699
       1B2    -0.515699

    Alpha Virtual:

       6A1     0.068319     7A1     0.073026     2B1     0.080411
       2B2     0.080411     3B1     0.127443     3B2     0.127443
       8A1     0.154727     4B1     0.203365     4B2     0.203365
       9A1     0.255620     1A2     0.288812    10A1     0.288812
      11A1     0.354235     5B1     0.402742     5B2     0.402742
       6B1     0.464491     6B2     0.464491    12A1     0.467881
      13A1     0.537143     2A2     0.558841    14A1     0.558841
       7B1     0.654683     7B2     0.654683    15A1     0.696066
      16A1     0.920362     3A2     0.984765    17A1     0.984765
       8B2     1.029943     8B1     1.029943     9B1     1.064622
       9B2     1.064622    10B1     1.102696    10B2     1.102696
      18A1     1.116768     4A2     1.206507    19A1     1.206507
      20A1     1.229182    21A1     1.336983    11B1     1.427387
      11B2     1.427387    12B1     1.638285    12B2     1.638285
      22A1     1.681004     5A2     1.681004    23A1     1.861164
      13B2     1.869633    13B1     1.869633    14B2     2.080971
      14B1     2.080971    24A1     2.095120     6A2     2.095120
      25A1     2.206555    26A1     2.486811    15B1     2.786782
      15B2     2.786782    27A1     3.238269    28A1     3.338532
       7A2     3.338532    16B1     3.401694    16B2     3.401694
      17B1     3.414599    17B2     3.414599     8A2     3.532759
      29A1     3.532759    18B2     3.630896    18B1     3.630896
      30A1     3.640714    31A1     3.670086    19B2     4.412090
      19B1     4.412090    32A1     4.503949    20B1     4.964820
      20B2     4.964820    33A1     5.186174     9A2     5.186174
      34A1     5.336681    10A2     5.336681    21B2     5.551819
      21B1     5.551819    22B2     5.923812    22B1     5.923812
      35A1     5.935283    36A1     6.013109    37A1    10.969183
      38A1    14.921130

    Beta Occupied:

       1A1   -15.637722     2A1   -11.304362     3A1    -1.249025
       4A1    -0.623728     1B1    -0.538825     1B2    -0.538825

    Beta Virtual:

       5A1    -0.036655     6A1     0.073025     2B1     0.075135
       2B2     0.075135     7A1     0.101841     3B2     0.156869
       3B1     0.156869     8A1     0.162915     4B2     0.213450
       4B1     0.213450     9A1     0.260612     1A2     0.299214
      10A1     0.299214    11A1     0.367717     5B1     0.396679
       5B2     0.396679     6B2     0.498102     6B1     0.498102
      12A1     0.510592    13A1     0.546242    14A1     0.548566
       2A2     0.548566     7B2     0.681587     7B1     0.681587
      15A1     0.765963    16A1     0.973136     8B1     1.001341
       8B2     1.001341    17A1     1.050911     3A2     1.050911
       9B1     1.080506     9B2     1.080506    18A1     1.118971
      10B2     1.144843    10B1     1.144843    19A1     1.212180
       4A2     1.212180    20A1     1.243845    21A1     1.354051
      11B1     1.433325    11B2     1.433325    12B2     1.626349
      12B1     1.626349    22A1     1.641531     5A2     1.641531
      23A1     1.874313    13B1     1.876119    13B2     1.876119
      24A1     2.079590     6A2     2.079590    14B2     2.104726
      14B1     2.104726    25A1     2.234462    26A1     2.543477
      15B2     2.812843    15B1     2.812843    27A1     3.310050
      28A1     3.420797     7A2     3.420797    16B1     3.454847
      16B2     3.454847    17B2     3.503541    17B1     3.503541
      29A1     3.586095     8A2     3.586095    18B1     3.614992
      18B2     3.614992    30A1     3.651243    31A1     3.711207
      19B1     4.407473    19B2     4.407473    32A1     4.506780
      20B1     4.918111    20B2     4.918111    33A1     5.124956
       9A2     5.124956    34A1     5.299279    10A2     5.299279
      21B1     5.521670    21B2     5.521670    22B2     5.925023
      22B1     5.925023    35A1     5.934365    36A1     6.019637
      37A1    10.989090    38A1    14.920184

    Final Occupation by Irrep:
             A1    A2    B1    B2
    DOCC [     4,    0,    1,    1 ]
    SOCC [     1,    0,    0,    0 ]

  @UHF Final Energy:   -92.23358374968213

   => Energetics <=

    Nuclear Repulsion Energy =             18.6306468180101099
    One-Electron Energy =                -161.2912027053354791
    Two-Electron Energy =                  50.4269721376432329
    Total Energy =                        -92.2335837496821256

  UHF NO Occupations:
  HONO-2 :    1 B2 1.8693217
  HONO-1 :    1 B1 1.8693217
  HONO-0 :    5 A1 1.0000000
  LUNO+0 :    2 B1 0.1306783
  LUNO+1 :    2 B2 0.1306783
  LUNO+2 :    6 A1 0.0020849
  LUNO+3 :    7 A1 0.0006737

Computation Completed

Properties will be evaluated at   0.000000,   0.000000,   0.000000 [a0]

Properties computed using the SCF density matrix

  Nuclear Dipole Moment: [e a0]
     X:     0.0000      Y:     0.0000      Z:     0.0016

  Electronic Dipole Moment: [e a0]
     X:     0.0000      Y:     0.0000      Z:     0.8401

  Dipole Moment: [e a0]
     X:     0.0000      Y:     0.0000      Z:     0.8417     Total:     0.8417

  Dipole Moment: [D]
     X:     0.0000      Y:     0.0000      Z:     2.1394     Total:     2.1394

*** tstop() called on n412-040.vsc4.prov at Tue Jan 26 18:08:33 2021
Module time:
	user time   =      42.66 seconds =       0.71 minutes
	system time =       1.25 seconds =       0.02 minutes
	total time  =          5 seconds =       0.08 minutes
Total time:
	user time   =      42.66 seconds =       0.71 minutes
	system time =       1.25 seconds =       0.02 minutes
	total time  =          5 seconds =       0.08 minutes

*** tstart() called on n412-040.vsc4.prov
*** at Tue Jan 26 18:08:33 2021

	Wfn Parameters:
	--------------------
	Wavefunction         = CCSD_T
	Number of irreps     = 4
	Number of MOs        = 92
	Number of active MOs = 90
	AO-Basis             = NONE
	Semicanonical        = false
	Reference            = UHF
	Print Level          = 1

	IRREP	# MOs	# FZDC	# DOCC	# SOCC	# VIRT	# FZVR
	-----	-----	------	------	------	------	------
	 A1	   38	    2	    2	    1	    33	    0
	 A2	   10	    0	    0	    0	    10	    0
	 B1	   22	    0	    1	    0	    21	    0
	 B2	   22	    0	    1	    0	    21	    0
	Transforming integrals...
	IWL integrals will be deleted.
	(OO|OO)...
	Presorting SO-basis two-electron integrals.
	Sorting File: SO Ints (nn|nn) nbuckets = 1
	Constructing frozen core operators
	Starting AA/AB first half-transformation.
	Sorting AA/AB half-transformed integrals.
	Starting BB first half-transformation.
	Sorting BB half-transformed integrals.
	First half integral transformation complete.
	Starting AA second half-transformation.
	Starting AB second half-transformation.
	Starting BB second half-transformation.
	Two-electron integral transformation complete.
	(OO|OV)...
	Starting AA second half-transformation.
	Starting AB second half-transformation.
	Starting BB second half-transformation.
	Two-electron integral transformation complete.
	(OO|VV)...
	Starting AA second half-transformation.
	Starting AB second half-transformation.
	Starting BB second half-transformation.
	Two-electron integral transformation complete.
	(OV|OO)...
	Starting AA/AB first half-transformation.
	Sorting AA/AB half-transformed integrals.
	Starting BB first half-transformation.
	Sorting BB half-transformed integrals.
	First half integral transformation complete.
	Starting AA second half-transformation.
	Starting AB second half-transformation.
	Starting BB second half-transformation.
	Two-electron integral transformation complete.
	(OV|OV)...
	Starting AA second half-transformation.
	Starting AB second half-transformation.
	Starting BB second half-transformation.
	Two-electron integral transformation complete.
	(OV|VV)...
	Starting AA second half-transformation.
	Starting AB second half-transformation.
	Starting BB second half-transformation.
	Two-electron integral transformation complete.
	(VV|OO)...
	Starting AA/AB first half-transformation.
	Sorting AA/AB half-transformed integrals.
	Starting BB first half-transformation.
	Sorting BB half-transformed integrals.
	First half integral transformation complete.
	Starting AA second half-transformation.
	Starting AB second half-transformation.
	Starting BB second half-transformation.
	Two-electron integral transformation complete.
	(VV|OV)...
	Starting AA second half-transformation.
	Starting AB second half-transformation.
	Starting BB second half-transformation.
	Two-electron integral transformation complete.
	(VV|VV)...
	Starting AA second half-transformation.
	Starting AB second half-transformation.
	Starting BB second half-transformation.
	Two-electron integral transformation complete.
	Frozen core energy     =    -86.85030359900169

	Size of irrep 0 of <AB|CD> integrals:      0.986 (MW) /      7.888 (MB)
	Size of irrep 1 of <AB|CD> integrals:      0.594 (MW) /      4.756 (MB)
	Size of irrep 2 of <AB|CD> integrals:      0.815 (MW) /      6.523 (MB)
	Size of irrep 3 of <AB|CD> integrals:      0.815 (MW) /      6.523 (MB)
	Total:                                     3.211 (MW) /     25.690 (MB)

	Size of irrep 0 of <ab|cd> integrals:      1.053 (MW) /      8.421 (MB)
	Size of irrep 1 of <ab|cd> integrals:      0.610 (MW) /      4.880 (MB)
	Size of irrep 2 of <ab|cd> integrals:      0.854 (MW) /      6.830 (MB)
	Size of irrep 3 of <ab|cd> integrals:      0.854 (MW) /      6.830 (MB)
	Total:                                     3.370 (MW) /     26.962 (MB)

	Size of irrep 0 of <Ab|Cd> integrals:      4.427 (MW) /     35.415 (MB)
	Size of irrep 1 of <Ab|Cd> integrals:      2.409 (MW) /     19.270 (MB)
	Size of irrep 2 of <Ab|Cd> integrals:      3.338 (MW) /     26.703 (MB)
	Size of irrep 3 of <Ab|Cd> integrals:      3.338 (MW) /     26.703 (MB)
	Total:                                    13.511 (MW) /    108.091 (MB)

	Size of irrep 0 of <IA|BC> integrals:      0.292 (MW) /      2.336 (MB)
	Size of irrep 1 of <IA|BC> integrals:      0.111 (MW) /      0.888 (MB)
	Size of irrep 2 of <IA|BC> integrals:      0.191 (MW) /      1.531 (MB)
	Size of irrep 3 of <IA|BC> integrals:      0.191 (MW) /      1.531 (MB)
	Total:                                     0.786 (MW) /      6.287 (MB)

	Size of irrep 0 of <ia|bc> integrals:      0.235 (MW) /      1.881 (MB)
	Size of irrep 1 of <ia|bc> integrals:      0.097 (MW) /      0.775 (MB)
	Size of irrep 2 of <ia|bc> integrals:      0.159 (MW) /      1.271 (MB)
	Size of irrep 3 of <ia|bc> integrals:      0.159 (MW) /      1.271 (MB)
	Total:                                     0.650 (MW) /      5.199 (MB)

	Size of irrep 0 of <Ia|Bc> integrals:      0.303 (MW) /      2.424 (MB)
	Size of irrep 1 of <Ia|Bc> integrals:      0.112 (MW) /      0.894 (MB)
	Size of irrep 2 of <Ia|Bc> integrals:      0.195 (MW) /      1.564 (MB)
	Size of irrep 3 of <Ia|Bc> integrals:      0.195 (MW) /      1.564 (MB)
	Total:                                     0.806 (MW) /      6.446 (MB)

	Size of irrep 0 of <iA|bC> integrals:      0.227 (MW) /      1.818 (MB)
	Size of irrep 1 of <iA|bC> integrals:      0.096 (MW) /      0.770 (MB)
	Size of irrep 2 of <iA|bC> integrals:      0.155 (MW) /      1.242 (MB)
	Size of irrep 3 of <iA|bC> integrals:      0.155 (MW) /      1.242 (MB)
	Total:                                     0.634 (MW) /      5.072 (MB)

	Size of irrep 0 of tIjAb amplitudes:       0.017 (MW) /      0.135 (MB)
	Size of irrep 1 of tIjAb amplitudes:       0.003 (MW) /      0.025 (MB)
	Size of irrep 2 of tIjAb amplitudes:       0.009 (MW) /      0.073 (MB)
	Size of irrep 3 of tIjAb amplitudes:       0.009 (MW) /      0.073 (MB)
	Total:                                     0.038 (MW) /      0.306 (MB)

	Nuclear Rep. energy          =     18.63064681801011
	SCF energy                   =    -92.23358374968213
	One-electron energy          =    -41.50388477532791
	Two-electron (AA) energy     =      4.25128827086798
	Two-electron (BB) energy     =      3.04201428733590
	Two-electron (AB) energy     =     10.19665524843331
	Two-electron energy          =     17.48995780663719
	Reference energy             =    -92.23358374968230

*** tstop() called on n412-040.vsc4.prov at Tue Jan 26 18:08:42 2021
Module time:
	user time   =       2.14 seconds =       0.04 minutes
	system time =       1.29 seconds =       0.02 minutes
	total time  =          9 seconds =       0.15 minutes
Total time:
	user time   =      44.80 seconds =       0.75 minutes
	system time =       2.54 seconds =       0.04 minutes
	total time  =         14 seconds =       0.23 minutes
            **************************
            *                        *
            *        CCENERGY        *
            *                        *
            **************************

    Nuclear Rep. energy (wfn)     =   18.630646818010110
    SCF energy          (wfn)     =  -92.233583749682126
    Reference energy    (file100) =  -92.233583749682296

    Input parameters:
    -----------------
    Wave function   =     CCSD_T
    Reference wfn   =     UHF
    Brueckner       =     No
    Memory (Mbytes) =     250000.0
    Maxiter         =     50
    R_Convergence   =     1.0e-07
    E_Convergence   =     1.0e-06
    Restart         =     Yes
    DIIS            =     Yes
    AO Basis        =     NONE
    ABCD            =     NEW
    Cache Level     =     2
    Cache Type      =     LRU
    Print Level     =     1
    Num. of threads =     48
    # Amps to Print =     10
    Print MP2 Amps? =     No
    Analyze T2 Amps =     No
    Print Pair Ener =     No
    Local CC        =     No
    SCS-MP2         =     False
    SCSN-MP2        =     False
    SCS-CCSD        =     False

MP2 correlation energy -0.2741472514319740
                Solving CC Amplitude Equations
                ------------------------------
  Iter             Energy              RMS        T1Diag      D1Diag    New D1Diag    D2Diag
  ----     ---------------------    ---------   ----------  ----------  ----------   --------
     0        -0.274147251431974    0.000e+00    0.000000    0.000000    0.000000    0.000000
     1        -0.276008295787137    1.214e-01    0.037176    0.000000    0.000000    0.000000
     2        -0.294938761077881    6.371e-02    0.056881    0.000000    0.000000    0.000000
     3        -0.311407075836821    5.459e-02    0.103150    0.000000    0.000000    0.000000
     4        -0.315171967646934    2.315e-02    0.125697    0.000000    0.000000    0.000000
     5        -0.315869940777145    1.267e-02    0.130966    0.000000    0.000000    0.000000
     6        -0.316753654746822    8.060e-03    0.134403    0.000000    0.000000    0.000000
     7        -0.316871639910770    4.363e-03    0.136017    0.000000    0.000000    0.000000
     8        -0.316991048966600    1.969e-03    0.136834    0.000000    0.000000    0.000000
     9        -0.317072121266506    9.260e-04    0.137212    0.000000    0.000000    0.000000
    10        -0.317074596009511    4.927e-04    0.137391    0.000000    0.000000    0.000000
    11        -0.317062785318854    1.964e-04    0.137353    0.000000    0.000000    0.000000
    12        -0.317054132259535    7.481e-05    0.137352    0.000000    0.000000    0.000000
    13        -0.317058299958179    3.349e-05    0.137370    0.000000    0.000000    0.000000
    14        -0.317060346525408    1.495e-05    0.137374    0.000000    0.000000    0.000000
    15        -0.317061241212894    4.168e-06    0.137378    0.000000    0.000000    0.000000
    16        -0.317061482994009    1.191e-06    0.137378    0.000000    0.000000    0.000000
    17        -0.317061541597987    4.755e-07    0.137379    0.000000    0.000000    0.000000
    18        -0.317061548618794    1.256e-07    0.137379    0.000000    0.000000    0.000000
    19        -0.317061548308212    5.574e-08    0.137379    0.000000    0.000000    0.000000

    Iterations converged.

    Largest TIA Amplitudes:
              4  66        -0.1180649326
              3  45        -0.1180649325
              3  44        -0.1095205983
              4  65        -0.1095205972
              3  46        -0.0546481649
              4  67        -0.0546481647
              4  64         0.0441549295
              3  43         0.0441549292
              3  49        -0.0343199105
              4  70        -0.0343199105

    Largest Tia Amplitudes:
              1   0         0.2088296056
              2  46         0.1254422846
              3  67         0.1254422806
              1   2         0.0886757517
              3  66         0.0437296498
              2  45         0.0437296439
              2  49         0.0427888154
              3  70         0.0427888146
              2  44         0.0427352054
              3  65         0.0427352030

    Largest TIJAB Amplitudes:
      4   3  65  44        -0.0197998646
      4   3  66  45        -0.0195295192
      4   3  66  44        -0.0178633695
      4   3  65  45        -0.0178633694
      3   2  45  10        -0.0125794636
      4   2  66  10        -0.0125794636
      4   3  35  11        -0.0120126275
      3   1  44   9        -0.0100635149
      4   1  65   9        -0.0100635147
      3   1  45   9        -0.0100131189

    Largest Tijab Amplitudes:
      3   2  67  46        -0.0262379116
      3   1  67   0        -0.0220436451
      2   1  46   0        -0.0220436443
      3   1  67   2        -0.0117306186
      2   1  46   2        -0.0117306182
      3   2  67  47        -0.0106339864
      3   2  68  46        -0.0106339863
      2   1  46  11        -0.0103937657
      3   1  67  11        -0.0103937654
      3   2  67  49        -0.0103748449

    Largest TIjAb Amplitudes:

      * MP2 total energy                      =  -92.507731001114266
      * CCSD total energy                     =  -92.550645297990513
      * CCSD(T) total energy                     =  -92.570255542530987
*** Psi4 exiting successfully. Buy a developer a beer!
