                               Psi4 1.4a3.dev88

  ==> Input File <==

--------------------------------------------------------------------------
# Any line starting with the # character is a comment line
memory 250000 mb
molecule molecule{
0 2
C          0.0000000000        0.0000000000        0.6422282651
N          0.0000000000        0.0000000000       -0.5507224180
}

set {
  reference uhf
  basis aug-cc-pV(6+d)Z
  scf_type OUT_OF_CORE
  freeze_core true
  DOCC [     4,    0,    1,    1 ]
  SOCC [     1,    0,    0,    0 ]

}

energy('ccsd(t)')
--------------------------------------------------------------------------

    Molecular point group: c2v

    Geometry (in Angstrom), charge = 0, multiplicity = 2:

       Center              X                  Y                   Z               Mass
    ------------   -----------------  -----------------  -----------------  -----------------
         C            0.000000000000     0.000000000000     0.642423149518    12.000000000000
         N            0.000000000000     0.000000000000    -0.550527533582    14.003074004430

  Charge       = 0
  Multiplicity = 2
  Basis Set: AUG-CC-PV(6+D)Z
    Blend: AUG-CC-PV(6+D)Z

    Orbital Energies [Eh]
    ---------------------

    Alpha Occupied:

       1A1   -15.606721     2A1   -11.360573     3A1    -1.230160
       4A1    -0.745856     5A1    -0.564891     1B1    -0.515685
       1B2    -0.515685

    Alpha Virtual:

       6A1     0.037423     7A1     0.046330     2B2     0.048136
       2B1     0.048136     3B2     0.087682     3B1     0.087682
       8A1     0.091637     4B2     0.149666     4B1     0.149666
       9A1     0.155693     1A2     0.178912    10A1     0.178912
      11A1     0.195927     5B2     0.198469     5B1     0.198469
      12A1     0.211947     6B2     0.242680     6B1     0.242680
      13A1     0.298426     2A2     0.309744    14A1     0.309744
       7B2     0.348077     7B1     0.348077    15A1     0.377150
       8B1     0.464570     8B2     0.464570    16A1     0.472097
       9B2     0.475396     9B1     0.475396    17A1     0.512593
      10B2     0.516385    10B1     0.516385     3A2     0.517838
      18A1     0.517838    19A1     0.561553     4A2     0.588323
      20A1     0.588323    11B2     0.653874    11B1     0.653874
      21A1     0.693934    12B2     0.699078    12B1     0.699078
       5A2     0.723980    22A1     0.723980    23A1     0.758504
      13B2     0.768889    13B1     0.768889    24A1     0.825290
      14B2     0.850494    14B1     0.850494    25A1     1.021500
       6A2     1.046865    26A1     1.046865    27A1     1.065101
      15B2     1.094535    15B1     1.094535    28A1     1.234916
       7A2     1.234916    16B2     1.279854    16B1     1.279854
      17B2     1.303422    17B1     1.303422    29A1     1.320174
      18B2     1.340309    18B1     1.340309     8A2     1.342855
      30A1     1.342855     9A2     1.353221    31A1     1.353221
      32A1     1.361282    19B2     1.363169    19B1     1.363169
      33A1     1.516008    20B2     1.536191    20B1     1.536191
      34A1     1.573171    35A1     1.610549    10A2     1.610549
      36A1     1.708963    21B2     1.721126    21B1     1.721126
      37A1     1.762909    11A2     1.762909    22B2     1.811225
      22B1     1.811225    38A1     1.916303    12A2     1.916303
      23B2     1.923518    23B1     1.923518    39A1     1.950958
      40A1     2.139394    13A2     2.139394    24B2     2.146326
      24B1     2.146326    25B2     2.166220    25B1     2.166220
      41A1     2.334088    42A1     2.386895    26B2     2.481184
      26B1     2.481184    27B1     2.588534    27B2     2.588534
      28B1     2.621366    28B2     2.621366    43A1     2.638767
      44A1     2.691870    14A2     2.691870    15A2     2.810971
      45A1     2.810971    46A1     2.824327    29B2     2.986326
      29B1     2.986326    47A1     2.987466    16A2     2.987466
      30B2     2.997258    30B1     2.997258    31B1     3.042903
      31B2     3.042903    48A1     3.049623    32B2     3.064679
      32B1     3.064679    17A2     3.174400    49A1     3.174400
      18A2     3.248708    50A1     3.248708    51A1     3.251624
      52A1     3.323151    19A2     3.323151    53A1     3.459640
      33B2     3.513173    33B1     3.513173    34B2     3.532266
      34B1     3.532266    35B1     3.576416    35B2     3.576416
      54A1     3.796525    36B2     3.889271    36B1     3.889271
      55A1     3.913075    20A2     3.913075    56A1     4.046657
      21A2     4.046657    37B1     4.094202    37B2     4.094202
      57A1     4.183303    38B2     4.186974    38B1     4.186974
      58A1     4.285347    22A2     4.285347    59A1     4.319803
      39B2     4.378028    39B1     4.378028    40B1     4.401914
      40B2     4.401914    23A2     4.468408    60A1     4.468408
      41B2     4.726930    41B1     4.726930    61A1     4.916629
      24A2     4.916629    62A1     5.031731    63A1     5.180743
      42B2     5.180756    42B1     5.180756    64A1     5.218104
      65A1     5.249466    25A2     5.249466    26A2     5.294713
      66A1     5.294713    67A1     5.458316    43B1     5.491004
      43B2     5.491004    44B2     5.493042    44B1     5.493042
      45B2     5.782597    45B1     5.782597    68A1     6.068912
      27A2     6.068912    69A1     6.099736    28A2     6.099736
      46B1     6.144243    46B2     6.144243    70A1     6.165458
      47B2     6.235310    47B1     6.235310    48B2     6.257202
      48B1     6.257202    71A1     6.269213    29A2     6.269213
      30A2     6.345902    72A1     6.345902    49B1     6.599708
      49B2     6.599708    50B2     6.601611    50B1     6.601611
      73A1     6.644302    74A1     6.804008    31A2     6.804008
      51B2     6.915193    51B1     6.915193    75A1     7.139534
      52B2     7.169253    52B1     7.169253    32A2     7.279880
      76A1     7.279880    33A2     7.304050    77A1     7.304050
      53B2     7.356342    53B1     7.356342    78A1     7.407441
      79A1     7.569761    34A2     7.569761    54B2     7.627451
      54B1     7.627451    80A1     7.693382    35A2     7.693382
      81A1     7.736374    55B1     7.780279    55B2     7.780279
      56B2     7.828683    56B1     7.828683    82A1     8.195320
      57B1     8.444865    57B2     8.444865    83A1     8.573817
      36A2     8.573817    58B2     8.595123    58B1     8.595123
      84A1     8.676888    85A1     8.717121    37A2     8.717121
      59B2     8.719182    59B1     8.719182    38A2     9.033485
      86A1     9.033485    60B2     9.189376    60B1     9.189376
      61B2     9.340514    61B1     9.340514    87A1     9.371829
      39A2     9.371829    88A1     9.382590    62B2     9.875981
      62B1     9.875981    89A1     9.976314    40A2     9.976314
      63B2    10.057365    63B1    10.057365    90A1    10.127615
      91A1    10.378172    41A2    10.378172    64B2    10.518298
      64B1    10.518298    42A2    10.907377    92A1    10.907377
      93A1    11.004294    65B2    11.361336    65B1    11.361336
      94A1    11.387637    95A1    11.568483    66B2    11.588365
      66B1    11.588365    96A1    12.024144    43A2    12.024144
      97A1    12.462602    44A2    12.462602    67B1    12.539185
      67B2    12.539185    98A1    12.723578    45A2    12.723578
      99A1    12.729014    68B2    12.769698    68B1    12.769698
     100A1    12.958002    46A2    12.958002    69B2    13.530867
      69B1    13.530867   101A1    13.621536    70B2    13.644767
      70B1    13.644767    71B2    13.899975    71B1    13.899975
     102A1    13.939352    47A2    13.939352    72B2    14.328645
      72B1    14.328645    73B1    14.506506    73B2    14.506506
      48A2    14.575710   103A1    14.575710    74B1    14.634353
      74B2    14.634353   104A1    14.667019    49A2    14.667019
     105A1    14.883752    75B1    14.964109    75B2    14.964109
     106A1    15.144410    76B2    15.505119    76B1    15.505119
     107A1    16.433964    50A2    16.433964   108A1    16.569730
      51A2    16.816923   109A1    16.816923    77B2    17.240254
      77B1    17.240254    52A2    17.345975   110A1    17.345975
     111A1    17.418526    78B1    17.483543    78B2    17.483543
      79B2    17.552972    79B1    17.552972    53A2    18.134515
     112A1    18.134515   113A1    18.171762    54A2    18.171762
      80B2    18.403625    80B1    18.403625   114A1    18.564457
      81B2    18.636714    81B1    18.636714    82B2    19.227244
      82B1    19.227244   115A1    19.505201    55A2    19.505201
     116A1    19.580694    83B2    19.822011    83B1    19.822011
     117A1    20.230359    84B2    20.275513    84B1    20.275513
     118A1    20.438909    56A2    20.438909    57A2    20.488736
     119A1    20.488736    85B2    20.725953    85B1    20.725953
     120A1    21.055991   121A1    21.085337    58A2    21.085337
      86B2    21.469425    86B1    21.469425    87B2    21.575734
      87B1    21.575734   122A1    21.939947    88B2    22.139362
      88B1    22.139362   123A1    22.942024    59A2    22.942024
     124A1    23.145325   125A1    24.039070    60A2    24.039070
      89B2    24.732713    89B1    24.732713    90B2    25.065549
      90B1    25.065549   126A1    25.444500    61A2    25.444500
     127A1    26.039078    91B2    26.297928    91B1    26.297928
     128A1    26.958992   129A1    28.889352    62A2    28.889352
      92B2    31.116465    92B1    31.116465   130A1    31.932447
     131A1    60.321326   132A1    82.145055

    Beta Occupied:

       1A1   -15.635324     2A1   -11.302936     3A1    -1.248061
       4A1    -0.623579     1B1    -0.538967     1B2    -0.538967

    Beta Virtual:

       5A1    -0.036738     6A1     0.046259     2B2     0.046557
       2B1     0.046557     7A1     0.054668     3B2     0.092386
       3B1     0.092386     8A1     0.095360     4B2     0.155742
       4B1     0.155742     9A1     0.157760     1A2     0.181596
      10A1     0.181596    11A1     0.211917     5B2     0.214712
       5B1     0.214712    12A1     0.234177     6B2     0.261066
       6B1     0.261066    13A1     0.300155     2A2     0.308356
      14A1     0.308356     7B2     0.356948     7B1     0.356948
      15A1     0.384552     8B2     0.466803     8B1     0.466803
       9B2     0.466873     9B1     0.466873    16A1     0.492196
      17A1     0.520141    10B2     0.521193    10B1     0.521193
       3A2     0.530545    18A1     0.530545    19A1     0.599530
       4A2     0.600726    20A1     0.600726    11B2     0.669492
      11B1     0.669492    21A1     0.690961    12B2     0.697791
      12B1     0.697791     5A2     0.720015    22A1     0.720015
      23A1     0.779024    13B2     0.786795    13B1     0.786795
      24A1     0.857292    14B2     0.867166    14B1     0.867166
      25A1     1.026109     6A2     1.029013    26A1     1.029013
      15B2     1.066733    15B1     1.066733    27A1     1.104518
      28A1     1.239624     7A2     1.239624    16B2     1.285745
      16B1     1.285745    17B2     1.320206    17B1     1.320206
      29A1     1.334250    30A1     1.354036     8A2     1.354036
      18B2     1.362230    18B1     1.362230    19B2     1.365927
      19B1     1.365927    31A1     1.370208    32A1     1.412021
       9A2     1.412021    33A1     1.525908    20B2     1.551903
      20B1     1.551903    34A1     1.609608    10A2     1.609608
      35A1     1.618554    36A1     1.731119    11A2     1.759889
      37A1     1.759889    21B2     1.763682    21B1     1.763682
      22B2     1.805608    22B1     1.805608    38A1     1.912676
      12A2     1.912676    23B2     1.922677    23B1     1.922677
      39A1     1.953437    13A2     2.103378    40A1     2.103378
      24B2     2.156088    24B1     2.156088    25B2     2.157310
      25B1     2.157310    41A1     2.331222    42A1     2.399508
      26B2     2.460255    26B1     2.460255    27B1     2.595306
      27B2     2.595306    28B1     2.630607    28B2     2.630607
      43A1     2.651375    44A1     2.699835    14A2     2.699835
      15A2     2.817241    45A1     2.817241    46A1     2.860347
      29B2     3.008229    29B1     3.008229    47A1     3.011666
      16A2     3.011666    30B2     3.012010    30B1     3.012010
      48A1     3.067136    31B1     3.071782    31B2     3.071782
      32B2     3.079563    32B1     3.079563    17A2     3.192880
      49A1     3.192880    50A1     3.276832    18A2     3.278500
      51A1     3.278500    52A1     3.356875    19A2     3.356875
      53A1     3.492158    33B2     3.526423    33B1     3.526423
      34B1     3.539039    34B2     3.539039    35B1     3.571593
      35B2     3.571593    54A1     3.810637    55A1     3.901302
      20A2     3.901302    36B2     3.914076    36B1     3.914076
      56A1     4.043285    21A2     4.043285    37B1     4.090138
      37B2     4.090138    57A1     4.186509    38B2     4.193685
      38B1     4.193685    58A1     4.281132    22A2     4.281132
      59A1     4.326126    39B2     4.372823    39B1     4.372823
      40B2     4.399306    40B1     4.399306    23A2     4.454464
      60A1     4.454464    41B2     4.739267    41B1     4.739267
      61A1     4.897539    24A2     4.897539    62A1     5.060550
      42B2     5.179047    42B1     5.179047    63A1     5.197280
      64A1     5.220352    65A1     5.238612    25A2     5.238612
      26A2     5.304722    66A1     5.304722    67A1     5.463141
      43B1     5.487596    43B2     5.487596    44B1     5.501308
      44B2     5.501308    45B2     5.775281    45B1     5.775281
      68A1     6.085179    27A2     6.085179    69A1     6.114596
      28A2     6.114596    46B1     6.162838    46B2     6.162838
      70A1     6.184812    47B2     6.255361    47B1     6.255361
      48B2     6.279240    48B1     6.279240    71A1     6.288472
      29A2     6.288472    30A2     6.355088    72A1     6.355088
      49B2     6.596141    49B1     6.596141    50B1     6.638350
      50B2     6.638350    73A1     6.673180    74A1     6.812195
      31A2     6.812195    51B2     6.924991    51B1     6.924991
      75A1     7.152159    52B2     7.191086    52B1     7.191086
      32A2     7.271494    76A1     7.271494    33A2     7.335672
      77A1     7.335672    53B2     7.375914    53B1     7.375914
      78A1     7.407746    79A1     7.603436    34A2     7.603436
      54B2     7.632958    54B1     7.632958    80A1     7.709565
      35A2     7.709565    81A1     7.751799    55B1     7.775505
      55B2     7.775505    56B2     7.840642    56B1     7.840642
      82A1     8.223511    57B1     8.428945    57B2     8.428945
      83A1     8.567001    36A2     8.567001    58B2     8.599291
      58B1     8.599291    84A1     8.677906    59B2     8.717087
      59B1     8.717087    85A1     8.719188    37A2     8.719188
      38A2     9.027138    86A1     9.027138    60B2     9.196511
      60B1     9.196511    61B2     9.314546    61B1     9.314546
      87A1     9.377151    39A2     9.377151    88A1     9.378344
      62B2     9.895084    62B1     9.895084    89A1     9.975478
      40A2     9.975478    63B2    10.062202    63B1    10.062202
      90A1    10.144899    91A1    10.351566    41A2    10.351566
      64B1    10.505684    64B2    10.505684    42A2    10.890048
      92A1    10.890048    93A1    11.013476    65B2    11.354590
      65B1    11.354590    94A1    11.390889    95A1    11.573101
      66B2    11.576966    66B1    11.576966    96A1    12.025662
      43A2    12.025662    97A1    12.481502    44A2    12.481502
      67B1    12.557200    67B2    12.557200    98A1    12.706175
      45A2    12.706175    99A1    12.750791    68B2    12.774620
      68B1    12.774620   100A1    12.973507    46A2    12.973507
      69B2    13.550080    69B1    13.550080   101A1    13.642319
      70B2    13.659018    70B1    13.659018    71B2    13.910554
      71B1    13.910554   102A1    13.950078    47A2    13.950078
      72B2    14.347133    72B1    14.347133    73B1    14.532460
      73B2    14.532460    48A2    14.601842   103A1    14.601842
      74B1    14.665140    74B2    14.665140   104A1    14.692525
      49A2    14.692525   105A1    14.912542    75B1    14.987459
      75B2    14.987459   106A1    15.155073    76B2    15.521139
      76B1    15.521139   107A1    16.456197    50A2    16.456197
     108A1    16.584014    51A2    16.846287   109A1    16.846287
      77B2    17.260672    77B1    17.260672    52A2    17.329248
     110A1    17.329248   111A1    17.423310    78B1    17.509667
      78B2    17.509667    79B2    17.539834    79B1    17.539834
      53A2    18.125278   112A1    18.125278   113A1    18.195221
      54A2    18.195221    80B2    18.402355    80B1    18.402355
     114A1    18.575790    81B2    18.631395    81B1    18.631395
      82B2    19.237864    82B1    19.237864   115A1    19.505511
      55A2    19.505511   116A1    19.591402    83B2    19.811678
      83B1    19.811678   117A1    20.233020    84B2    20.252193
      84B1    20.252193   118A1    20.446274    56A2    20.446274
      57A2    20.470911   119A1    20.470911    85B2    20.707582
      85B1    20.707582   120A1    21.049282   121A1    21.085984
      58A2    21.085984    86B2    21.466043    86B1    21.466043
      87B2    21.551095    87B1    21.551095   122A1    21.933132
      88B2    22.152874    88B1    22.152874   123A1    22.928413
      59A2    22.928413   124A1    23.154833   125A1    24.011860
      60A2    24.011860    89B2    24.713588    89B1    24.713588
      90B2    25.058324    90B1    25.058324   126A1    25.431120
      61A2    25.431120   127A1    26.035733    91B2    26.288686
      91B1    26.288686   128A1    26.960632   129A1    28.865709
      62A2    28.865709    92B2    31.107170    92B1    31.107170
     130A1    31.927775   131A1    60.342452   132A1    82.138177

    Final Occupation by Irrep:
             A1    A2    B1    B2
    DOCC [     4,    0,    1,    1 ]
    SOCC [     1,    0,    0,    0 ]

  @UHF Final Energy:   -92.24030063362284

   => Energetics <=

    Nuclear Repulsion Energy =             18.6306468180101099
    One-Electron Energy =                -161.3144873235493151
    Two-Electron Energy =                  50.4435398719163501
    Total Energy =                        -92.2403006336228373

  UHF NO Occupations:
  HONO-2 :    1 B2 1.8683875
  HONO-1 :    1 B1 1.8683875
  HONO-0 :    5 A1 1.0000000
  LUNO+0 :    2 B1 0.1316125
  LUNO+1 :    2 B2 0.1316125
  LUNO+2 :    6 A1 0.0021068
  LUNO+3 :    7 A1 0.0006845

Computation Completed

Properties will be evaluated at   0.000000,   0.000000,   0.000000 [a0]

Properties computed using the SCF density matrix

  Nuclear Dipole Moment: [e a0]
     X:     0.0000      Y:     0.0000      Z:     0.0016

  Electronic Dipole Moment: [e a0]
     X:     0.0000      Y:     0.0000      Z:     0.8399

  Dipole Moment: [e a0]
     X:     0.0000      Y:     0.0000      Z:     0.8415     Total:     0.8415

  Dipole Moment: [D]
     X:     0.0000      Y:     0.0000      Z:     2.1389     Total:     2.1389

*** tstop() called on n412-015.vsc4.prov at Fri Jan 22 14:47:57 2021
Module time:
	user time   =     674.70 seconds =      11.25 minutes
	system time =      72.22 seconds =       1.20 minutes
	total time  =        956 seconds =      15.93 minutes
Total time:
	user time   =     674.70 seconds =      11.25 minutes
	system time =      72.22 seconds =       1.20 minutes
	total time  =        956 seconds =      15.93 minutes

*** tstart() called on n412-015.vsc4.prov
*** at Fri Jan 22 14:47:57 2021

	Wfn Parameters:
	--------------------
	Wavefunction         = CCSD_T
	Number of irreps     = 4
	Number of MOs        = 378
	Number of active MOs = 376
	AO-Basis             = NONE
	Semicanonical        = false
	Reference            = UHF
	Print Level          = 1

	IRREP	# MOs	# FZDC	# DOCC	# SOCC	# VIRT	# FZVR
	-----	-----	------	------	------	------	------
	 A1	   132	    2	    2	    1	    127	    0
	 A2	   62	    0	    0	    0	    62	    0
	 B1	   92	    0	    1	    0	    91	    0
	 B2	   92	    0	    1	    0	    91	    0
	Transforming integrals...
	IWL integrals will be deleted.
	(OO|OO)...
	Presorting SO-basis two-electron integrals.
	Sorting File: SO Ints (nn|nn) nbuckets = 1
	Constructing frozen core operators
	Starting AA/AB first half-transformation.
	Sorting AA/AB half-transformed integrals.
	Starting BB first half-transformation.
	Sorting BB half-transformed integrals.
	First half integral transformation complete.
	Starting AA second half-transformation.
	Starting AB second half-transformation.
	Starting BB second half-transformation.
	Two-electron integral transformation complete.
	(OO|OV)...
	Starting AA second half-transformation.
	Starting AB second half-transformation.
	Starting BB second half-transformation.
	Two-electron integral transformation complete.
	(OO|VV)...
	Starting AA second half-transformation.
	Starting AB second half-transformation.
	Starting BB second half-transformation.
	Two-electron integral transformation complete.
	(OV|OO)...
	Starting AA/AB first half-transformation.
	Sorting AA/AB half-transformed integrals.
	Starting BB first half-transformation.
	Sorting BB half-transformed integrals.
	First half integral transformation complete.
	Starting AA second half-transformation.
	Starting AB second half-transformation.
	Starting BB second half-transformation.
	Two-electron integral transformation complete.
	(OV|OV)...
	Starting AA second half-transformation.
	Starting AB second half-transformation.
	Starting BB second half-transformation.
	Two-electron integral transformation complete.
	(OV|VV)...
	Starting AA second half-transformation.
	Starting AB second half-transformation.
	Starting BB second half-transformation.
	Two-electron integral transformation complete.
	(VV|OO)...
	Starting AA/AB first half-transformation.
	Sorting AA/AB half-transformed integrals.
	Starting BB first half-transformation.
	Sorting BB half-transformed integrals.
	First half integral transformation complete.
	Starting AA second half-transformation.
	Starting AB second half-transformation.
	Starting BB second half-transformation.
	Two-electron integral transformation complete.
	(VV|OV)...
	Starting AA second half-transformation.

      * MP2 total energy                      =  -92.540732832911502
      * CCSD total energy                     =  -92.577890671259240
      * CCSD(T) total energy                     =  -92.599423538153147
*** Psi4 exiting successfully. Buy a developer a beer!
