                               Psi4 1.4a3.dev88

  ==> Input File <==

--------------------------------------------------------------------------
# Any line starting with the # character is a comment line
memory 250000 mb
molecule molecule{
0 2
C          0.0000000000        0.0000000000        0.6422282651
N          0.0000000000        0.0000000000       -0.5507224180
}

set {
  reference uhf
  basis aug-cc-pV(d+d)Z
  scf_type OUT_OF_CORE
  freeze_core true
}

energy('ccsd(t)')
--------------------------------------------------------------------------

    Molecular point group: c2v

    Geometry (in Angstrom), charge = 0, multiplicity = 2:

       Center              X                  Y                   Z               Mass
    ------------   -----------------  -----------------  -----------------  -----------------
         C            0.000000000000     0.000000000000     0.642423149518    12.000000000000
         N            0.000000000000     0.000000000000    -0.550527533582    14.003074004430

  Charge       = 0
  Multiplicity = 2
  Basis Set: AUG-CC-PV(D+D)Z
    Blend: AUG-CC-PV(D+D)Z

    Orbital Energies [Eh]
    ---------------------

    Alpha Occupied:

       1A1   -15.619226     2A1   -11.369765     3A1    -1.234788
       4A1    -0.746888     5A1    -0.564606     1B2    -0.515929
       1B1    -0.515929

    Alpha Virtual:

       6A1     0.079360     7A1     0.086551     2B2     0.093701
       2B1     0.093701     3B2     0.139712     3B1     0.139712
       8A1     0.190318     4B2     0.252775     4B1     0.252775
       9A1     0.314625    10A1     0.416597     1A2     0.416597
      11A1     0.469458     5B2     0.568114     5B1     0.568114
      12A1     0.628364     6B2     0.681491     6B1     0.681491
      13A1     0.758938     2A2     0.815586    14A1     0.815586
       7B1     0.966203     7B2     0.966203    15A1     0.990902
      16A1     1.256564     8B1     1.498382     8B2     1.498382
      17A1     1.579635     3A2     1.579635    18A1     1.702850
       9B2     1.751635     9B1     1.751635    19A1     1.972163
       4A2     2.592479    20A1     2.592479    21A1     2.593429
      10B1     2.806154    10B2     2.806154    22A1     3.215936

    Beta Occupied:

       1A1   -15.648169     2A1   -11.311890     3A1    -1.253547
       4A1    -0.624673     1B2    -0.538164     1B1    -0.538164

    Beta Virtual:

       5A1    -0.037820     6A1     0.086242     2B2     0.086552
       2B1     0.086552     7A1     0.120866     3B1     0.188530
       3B2     0.188530     8A1     0.198704     4B1     0.247992
       4B2     0.247992     9A1     0.322901    10A1     0.440390
       1A2     0.440390    11A1     0.510453     5B2     0.575880
       5B1     0.575880    12A1     0.674263     6B1     0.728618
       6B2     0.728618    13A1     0.762153    14A1     0.793289
       2A2     0.793289     7B1     0.988020     7B2     0.988020
      15A1     1.097837    16A1     1.278726     8B2     1.447602
       8B1     1.447602     3A2     1.669697    17A1     1.669697
      18A1     1.711926     9B1     1.824598     9B2     1.824598
      19A1     2.016060     4A2     2.515122    20A1     2.515122
      21A1     2.612591    10B2     2.788008    10B1     2.788008
      22A1     3.211530

    Final Occupation by Irrep:
             A1    A2    B1    B2
    DOCC [     4,    0,    1,    1 ]
    SOCC [     1,    0,    0,    0 ]

  @UHF Final Energy:   -92.21563418471574

   => Energetics <=

    Nuclear Repulsion Energy =             18.6306468180101099
    One-Electron Energy =                -161.2108221846038987
    Two-Electron Energy =                  50.3645411818780389
    Total Energy =                        -92.2156341847157393

  UHF NO Occupations:
  HONO-2 :    1 B1 1.8720908
  HONO-1 :    1 B2 1.8720908
  HONO-0 :    5 A1 1.0000000
  LUNO+0 :    2 B2 0.1279092
  LUNO+1 :    2 B1 0.1279092
  LUNO+2 :    6 A1 0.0019694
  LUNO+3 :    7 A1 0.0006112

Computation Completed

Properties will be evaluated at   0.000000,   0.000000,   0.000000 [a0]

Properties computed using the SCF density matrix

  Nuclear Dipole Moment: [e a0]
     X:     0.0000      Y:     0.0000      Z:     0.0016

  Electronic Dipole Moment: [e a0]
     X:     0.0000      Y:     0.0000      Z:     0.8429

  Dipole Moment: [e a0]
     X:     0.0000      Y:     0.0000      Z:     0.8445     Total:     0.8445

  Dipole Moment: [D]
     X:     0.0000      Y:     0.0000      Z:     2.1465     Total:     2.1465

*** tstop() called on n412-039.vsc4.prov at Tue Jan 26 18:16:17 2021
Module time:
	user time   =      25.15 seconds =       0.42 minutes
	system time =       0.92 seconds =       0.02 minutes
	total time  =          2 seconds =       0.03 minutes
Total time:
	user time   =      25.15 seconds =       0.42 minutes
	system time =       0.92 seconds =       0.02 minutes
	total time  =          2 seconds =       0.03 minutes

*** tstart() called on n412-039.vsc4.prov
*** at Tue Jan 26 18:16:17 2021

	Wfn Parameters:
	--------------------
	Wavefunction         = CCSD_T
	Number of irreps     = 4
	Number of MOs        = 46
	Number of active MOs = 44
	AO-Basis             = NONE
	Semicanonical        = false
	Reference            = UHF
	Print Level          = 1

	IRREP	# MOs	# FZDC	# DOCC	# SOCC	# VIRT	# FZVR
	-----	-----	------	------	------	------	------
	 A1	   22	    2	    2	    1	    17	    0
	 A2	   4	    0	    0	    0	    4	    0
	 B1	   10	    0	    1	    0	    9	    0
	 B2	   10	    0	    1	    0	    9	    0
	Transforming integrals...
	IWL integrals will be deleted.
	(OO|OO)...
	Presorting SO-basis two-electron integrals.
	Sorting File: SO Ints (nn|nn) nbuckets = 1
	Constructing frozen core operators
	Starting AA/AB first half-transformation.
	Sorting AA/AB half-transformed integrals.
	Starting BB first half-transformation.
	Sorting BB half-transformed integrals.
	First half integral transformation complete.
	Starting AA second half-transformation.
	Starting AB second half-transformation.
	Starting BB second half-transformation.
	Two-electron integral transformation complete.
	(OO|OV)...
	Starting AA second half-transformation.
	Starting AB second half-transformation.
	Starting BB second half-transformation.
	Two-electron integral transformation complete.
	(OO|VV)...
	Starting AA second half-transformation.
	Starting AB second half-transformation.
	Starting BB second half-transformation.
	Two-electron integral transformation complete.
	(OV|OO)...
	Starting AA/AB first half-transformation.
	Sorting AA/AB half-transformed integrals.
	Starting BB first half-transformation.
	Sorting BB half-transformed integrals.
	First half integral transformation complete.
	Starting AA second half-transformation.
	Starting AB second half-transformation.
	Starting BB second half-transformation.
	Two-electron integral transformation complete.
	(OV|OV)...
	Starting AA second half-transformation.
	Starting AB second half-transformation.
	Starting BB second half-transformation.
	Two-electron integral transformation complete.
	(OV|VV)...
	Starting AA second half-transformation.
	Starting AB second half-transformation.
	Starting BB second half-transformation.
	Two-electron integral transformation complete.
	(VV|OO)...
	Starting AA/AB first half-transformation.
	Sorting AA/AB half-transformed integrals.
	Starting BB first half-transformation.
	Sorting BB half-transformed integrals.
	First half integral transformation complete.
	Starting AA second half-transformation.
	Starting AB second half-transformation.
	Starting BB second half-transformation.
	Two-electron integral transformation complete.
	(VV|OV)...
	Starting AA second half-transformation.
	Starting AB second half-transformation.
	Starting BB second half-transformation.
	Two-electron integral transformation complete.
	(VV|VV)...
	Starting AA second half-transformation.
	Starting AB second half-transformation.
	Starting BB second half-transformation.
	Two-electron integral transformation complete.
	Frozen core energy     =    -86.85017082474803

	Size of irrep 0 of <AB|CD> integrals:      0.046 (MW) /      0.366 (MB)
	Size of irrep 1 of <AB|CD> integrals:      0.022 (MW) /      0.178 (MB)
	Size of irrep 2 of <AB|CD> integrals:      0.036 (MW) /      0.286 (MB)
	Size of irrep 3 of <AB|CD> integrals:      0.036 (MW) /      0.286 (MB)
	Total:                                     0.139 (MW) /      1.116 (MB)

	Size of irrep 0 of <ab|cd> integrals:      0.053 (MW) /      0.427 (MB)
	Size of irrep 1 of <ab|cd> integrals:      0.023 (MW) /      0.187 (MB)
	Size of irrep 2 of <ab|cd> integrals:      0.039 (MW) /      0.314 (MB)
	Size of irrep 3 of <ab|cd> integrals:      0.039 (MW) /      0.314 (MB)
	Total:                                     0.155 (MW) /      1.241 (MB)

	Size of irrep 0 of <Ab|Cd> integrals:      0.234 (MW) /      1.874 (MB)
	Size of irrep 1 of <Ab|Cd> integrals:      0.091 (MW) /      0.730 (MB)
	Size of irrep 2 of <Ab|Cd> integrals:      0.150 (MW) /      1.198 (MB)
	Size of irrep 3 of <Ab|Cd> integrals:      0.150 (MW) /      1.198 (MB)
	Total:                                     0.625 (MW) /      5.000 (MB)

	Size of irrep 0 of <IA|BC> integrals:      0.032 (MW) /      0.258 (MB)
	Size of irrep 1 of <IA|BC> integrals:      0.009 (MW) /      0.072 (MB)
	Size of irrep 2 of <IA|BC> integrals:      0.018 (MW) /      0.145 (MB)
	Size of irrep 3 of <IA|BC> integrals:      0.018 (MW) /      0.145 (MB)
	Total:                                     0.077 (MW) /      0.620 (MB)

	Size of irrep 0 of <ia|bc> integrals:      0.027 (MW) /      0.217 (MB)
	Size of irrep 1 of <ia|bc> integrals:      0.008 (MW) /      0.064 (MB)
	Size of irrep 2 of <ia|bc> integrals:      0.016 (MW) /      0.127 (MB)
	Size of irrep 3 of <ia|bc> integrals:      0.016 (MW) /      0.127 (MB)
	Total:                                     0.067 (MW) /      0.534 (MB)

	Size of irrep 0 of <Ia|Bc> integrals:      0.035 (MW) /      0.279 (MB)
	Size of irrep 1 of <Ia|Bc> integrals:      0.009 (MW) /      0.072 (MB)
	Size of irrep 2 of <Ia|Bc> integrals:      0.019 (MW) /      0.152 (MB)
	Size of irrep 3 of <Ia|Bc> integrals:      0.019 (MW) /      0.152 (MB)
	Total:                                     0.082 (MW) /      0.655 (MB)

	Size of irrep 0 of <iA|bC> integrals:      0.025 (MW) /      0.201 (MB)
	Size of irrep 1 of <iA|bC> integrals:      0.008 (MW) /      0.063 (MB)
	Size of irrep 2 of <iA|bC> integrals:      0.015 (MW) /      0.121 (MB)
	Size of irrep 3 of <iA|bC> integrals:      0.015 (MW) /      0.121 (MB)
	Total:                                     0.063 (MW) /      0.506 (MB)

	Size of irrep 0 of tIjAb amplitudes:       0.004 (MW) /      0.031 (MB)
	Size of irrep 1 of tIjAb amplitudes:       0.001 (MW) /      0.005 (MB)
	Size of irrep 2 of tIjAb amplitudes:       0.002 (MW) /      0.015 (MB)
	Size of irrep 3 of tIjAb amplitudes:       0.002 (MW) /      0.015 (MB)
	Total:                                     0.008 (MW) /      0.067 (MB)

	Nuclear Rep. energy          =     18.63064681801011
	SCF energy                   =    -92.21563418471574
	One-electron energy          =    -41.45953194025052
	Two-electron (AA) energy     =      4.24432264951009
	Two-electron (BB) energy     =      3.03464206314733
	Two-electron (AB) energy     =     10.18445704961484
	Two-electron energy          =     17.46342176227226
	Reference energy             =    -92.21563418471619

*** tstop() called on n412-039.vsc4.prov at Tue Jan 26 18:16:18 2021
Module time:
	user time   =       0.18 seconds =       0.00 minutes
	system time =       0.22 seconds =       0.00 minutes
	total time  =          1 seconds =       0.02 minutes
Total time:
	user time   =      25.33 seconds =       0.42 minutes
	system time =       1.14 seconds =       0.02 minutes
	total time  =          3 seconds =       0.05 minutes
            **************************
            *                        *
            *        CCENERGY        *
            *                        *
            **************************

    Nuclear Rep. energy (wfn)     =   18.630646818010110
    SCF energy          (wfn)     =  -92.215634184715739
    Reference energy    (file100) =  -92.215634184716194

    Input parameters:
    -----------------
    Wave function   =     CCSD_T
    Reference wfn   =     UHF
    Brueckner       =     No
    Memory (Mbytes) =     250000.0
    Maxiter         =     50
    R_Convergence   =     1.0e-07
    E_Convergence   =     1.0e-06
    Restart         =     Yes
    DIIS            =     Yes
    AO Basis        =     NONE
    ABCD            =     NEW
    Cache Level     =     2
    Cache Type      =     LRU
    Print Level     =     1
    Num. of threads =     48
    # Amps to Print =     10
    Print MP2 Amps? =     No
    Analyze T2 Amps =     No
    Print Pair Ener =     No
    Local CC        =     No
    SCS-MP2         =     False
    SCSN-MP2        =     False
    SCS-CCSD        =     False

MP2 correlation energy -0.2273137976389220
                Solving CC Amplitude Equations
                ------------------------------
  Iter             Energy              RMS        T1Diag      D1Diag    New D1Diag    D2Diag
  ----     ---------------------    ---------   ----------  ----------  ----------   --------
     0        -0.227313797638922    0.000e+00    0.000000    0.000000    0.000000    0.000000
     1        -0.233154074444672    1.174e-01    0.035701    0.000000    0.000000    0.000000
     2        -0.251329250665635    6.467e-02    0.058190    0.000000    0.000000    0.000000
     3        -0.267132850668118    5.292e-02    0.102016    0.000000    0.000000    0.000000
     4        -0.271206378094904    2.344e-02    0.124790    0.000000    0.000000    0.000000
     5        -0.271945596635170    1.258e-02    0.130132    0.000000    0.000000    0.000000
     6        -0.272830673100682    8.051e-03    0.133802    0.000000    0.000000    0.000000
     7        -0.272934421997177    4.009e-03    0.135328    0.000000    0.000000    0.000000
     8        -0.273084252471046    1.810e-03    0.136151    0.000000    0.000000    0.000000
     9        -0.273134108390728    8.958e-04    0.136432    0.000000    0.000000    0.000000
    10        -0.273145748989111    4.985e-04    0.136625    0.000000    0.000000    0.000000
    11        -0.273133175204456    2.047e-04    0.136605    0.000000    0.000000    0.000000
    12        -0.273121351438445    7.950e-05    0.136592    0.000000    0.000000    0.000000
    13        -0.273124586840279    3.355e-05    0.136615    0.000000    0.000000    0.000000
    14        -0.273126035790703    1.436e-05    0.136615    0.000000    0.000000    0.000000
    15        -0.273127267401657    5.273e-06    0.136621    0.000000    0.000000    0.000000
    16        -0.273127751679609    1.520e-06    0.136622    0.000000    0.000000    0.000000
    17        -0.273127858841851    4.617e-07    0.136623    0.000000    0.000000    0.000000
    18        -0.273127885965987    1.409e-07    0.136623    0.000000    0.000000    0.000000
    19        -0.273127889296248    6.043e-08    0.136623    0.000000    0.000000    0.000000

    Iterations converged.

    Largest TIA Amplitudes:
              4  31        -0.1201489105
              3  22        -0.1201489064
              4  32        -0.1036584021
              3  23        -0.1036584014
              3  21         0.0609949446
              4  30         0.0609949445
              4  33        -0.0404704113
              3  24        -0.0404704106
              4  36         0.0269518028
              3  27         0.0269518027

    Largest Tia Amplitudes:
              1   0         0.2125626951
              3  33         0.1158495162
              2  24         0.1158495003
              1   2         0.0911738871
              2  23         0.0717678124
              3  32         0.0717677983
              3  31         0.0555183175
              2  22         0.0555183115
              3  36         0.0307911810
              2  27         0.0307911801

    Largest TIJAB Amplitudes:
      4   3  31  22        -0.0253454422
      4   3  31  23        -0.0174276039
      4   3  32  22        -0.0174276036
      4   3  32  23        -0.0168064626
      4   3  34  25        -0.0121836659
      4   2  31   9         0.0118309482
      3   2  22   9         0.0118309479
      4   1  31   9        -0.0116119399
      3   1  22   9        -0.0116119395
      4   3  17   4        -0.0115994091

    Largest Tijab Amplitudes:
      3   2  33  24        -0.0257065804
      2   1  24   0        -0.0222778007
      3   1  33   0        -0.0222777995
      3   2  33  22        -0.0119973933
      3   2  31  24        -0.0119973929
      2   1  24   2        -0.0118384962
      3   1  33   2        -0.0118384957
      2   1  22   0        -0.0114166703
      3   1  31   0        -0.0114166691
      2   1  24   4        -0.0108614277

    Largest TIjAb Amplitudes:
      4   3  31  33        -0.0651832484
      3   2  22  24        -0.0651832467
      4   3  32  33        -0.0605947378
      3   2  23  24        -0.0605947368
      4   1  31   0        -0.0535433788
      3   1  22   0        -0.0535433767
      4   1  32   0        -0.0483572283
      3   1  23   0        -0.0483572274
      1   2  22   0         0.0399130983
      1   3  31   0         0.0399130938

    SCF energy       (wfn)                    =  -92.215634184715739
    Reference energy (file100)                =  -92.215634184716194

    Opposite-spin MP2 correlation energy      =   -0.161361088334123
    Same-spin MP2 correlation energy          =   -0.065952709304799
    Singles MP2 correlation energy            =   -0.000000000000000
    MP2 correlation energy                    =   -0.227313797638922
      * MP2 total energy                      =  -92.442947982355122

    Opposite-spin CCSD correlation energy     =   -0.221414624143287
    Same-spin CCSD correlation energy         =   -0.051713265152960
    Singles CCSD correlation energy           =   -0.000000000000001
    CCSD correlation energy                   =   -0.273127889296248
      * CCSD total energy                     =  -92.488762074012442

            **************************
            *                        *
            *        CCTRIPLES       *
            *                        *
            **************************

      * CCSD(T) total energy                     =  -92.502975415474822
*** Psi4 exiting successfully. Buy a developer a beer!
