                               Psi4 1.2a1.dev939

  ==> Input File <==

--------------------------------------------------------------------------
# Any line starting with the # character is a comment line
memory 250000 mb
molecule molecule{
1 2
C          0.0000000000        0.0000000000        0.7044716158
C          0.0000000000        0.0000000000       -0.7044716158
H         -0.9270295001        0.1081930514       -1.2539243804
H          0.9270295001       -0.1081930514       -1.2539243804
H          0.9270295001        0.1081930514        1.2539243804
H         -0.9270295001       -0.1081930514        1.2539243804
}

set {
  reference uhf
  basis aug-cc-pv(5+d)z
  scf_type OUT_OF_CORE
  freeze_core true
}

energy('ccsd')
--------------------------------------------------------------------------

    Molecular point group: d2

    Geometry (in Angstrom), charge = 1, multiplicity = 2:

       Center              X                  Y                   Z               Mass
    ------------   -----------------  -----------------  -----------------  -----------------
           C          0.000000000000     0.000000000000     0.704471615800    12.000000000000
           C          0.000000000000     0.000000000000    -0.704471615800    12.000000000000
           H         -0.927029500100     0.108193051400    -1.253924380400     1.007825032070
           H          0.927029500100    -0.108193051400    -1.253924380400     1.007825032070
           H          0.927029500100     0.108193051400     1.253924380400     1.007825032070
           H         -0.927029500100    -0.108193051400     1.253924380400     1.007825032070

  Charge       = 1
  Multiplicity = 2
  Basis Set: AUG-CC-PV(5+D)Z
    Blend: AUG-CC-PV(5+D)Z

    Orbital Energies (a.u.)
    -----------------------

    Alpha Occupied:

       1A    -11.612218     1B1   -11.610866     2A     -1.402415
       2B1    -1.140886     1B3    -0.971930     3A     -0.962872
       1B2    -0.849870     2B2    -0.696229

    Alpha Virtual:

       2B3    -0.169137     4A     -0.111702     3B1    -0.090584
       3B3    -0.087604     3B2    -0.072817     5A     -0.054447
       4B2    -0.052101     4B3    -0.032071     6A     -0.026526
       4B1    -0.025475     7A     -0.020145     5B3    -0.019260
       5B1    -0.008653     5B2     0.005543     6B1     0.013517
       6B3     0.017943     8A      0.046822     7B1     0.048376
       6B2     0.057258     9A      0.061787     8B1     0.071024
       7B3     0.081543     7B2     0.090506     8B2     0.094532
       8B3     0.101311     9B3     0.120084    10A      0.125730
      11A      0.126563     9B2     0.128541    10B3     0.137397
       9B1     0.143122    10B2     0.144140    12A      0.151104
      10B1     0.154336    11B3     0.155931    11B2     0.159095
      11B1     0.202291    12B1     0.209086    13A      0.213405
      13B1     0.213992    14A      0.232630    12B3     0.237617
      14B1     0.270841    15A      0.272913    13B3     0.278917
      14B3     0.301112    12B2     0.303091    15B1     0.308909
      13B2     0.321554    16A      0.325869    14B2     0.336636
      15B3     0.365542    17A      0.377912    15B2     0.391884
      16B1     0.395429    16B3     0.407068    18A      0.408969
      16B2     0.412149    17B1     0.435175    17B2     0.451163
      17B3     0.452599    18B1     0.458183    19A      0.461673
      18B3     0.474102    20A      0.484556    19B1     0.489178
      19B3     0.490941    18B2     0.520085    21A      0.521048
      20B1     0.525986    21B1     0.546862    22B1     0.561506
      22A      0.565539    19B2     0.566283    23A      0.593095
      20B2     0.597214    20B3     0.608669    21B2     0.612235
      21B3     0.624000    24A      0.635741    22B3     0.656678
      22B2     0.662043    23B2     0.703746    23B1     0.709574
      25A      0.712487    24B1     0.720708    23B3     0.721099
      24B3     0.742972    25B1     0.748233    24B2     0.749706
      25B2     0.760584    26A      0.798547    26B1     0.799129
      25B3     0.809600    27A      0.835208    26B2     0.858083
      27B1     0.883686    26B3     0.918266    27B2     0.939463
      28A      0.958065    28B1     0.968953    27B3     0.993188
      29A      1.007429    28B2     1.018937    28B3     1.022307
      29B1     1.038743    30A      1.043218    29B3     1.052680
      30B3     1.079136    30B1     1.095341    31B1     1.105430
      29B2     1.106185    31A      1.109746    32A      1.135586
      30B2     1.144391    32B1     1.163212    31B3     1.169877
      33A      1.198523    33B1     1.198886    32B3     1.203556
      34A      1.211648    31B2     1.242164    35A      1.257031
      34B1     1.273159    33B3     1.273899    32B2     1.281872
      33B2     1.302353    36A      1.316141    34B3     1.331960
      35B1     1.335097    34B2     1.353932    36B1     1.366368
      37A      1.368461    35B3     1.383268    35B2     1.404338
      36B2     1.425093    38A      1.439565    36B3     1.451827
      39A      1.465881    37B1     1.469834    37B2     1.492406
      37B3     1.502487    40A      1.506170    38B1     1.506207
      38B2     1.524930    39B1     1.532991    38B3     1.543771
      39B2     1.558443    39B3     1.612906    40B1     1.631975
      40B2     1.655053    40B3     1.655705    41A      1.673501
      41B1     1.681103    42A      1.711567    42B1     1.714047
      43A      1.749887    41B2     1.777901    43B1     1.789161
      44B1     1.817017    41B3     1.831925    42B3     1.839944
      42B2     1.845683    44A      1.860237    45B1     1.887080
      45A      1.895798    43B2     1.898666    43B3     1.925190
      46A      1.991158    44B2     1.991845    47A      2.000421
      44B3     2.008375    45B3     2.074570    45B2     2.084828
      48A      2.090547    46B1     2.118032    47B1     2.160810
      46B3     2.166561    46B2     2.209633    48B1     2.217878
      49A      2.262208    47B2     2.306539    49B1     2.316224
      47B3     2.330609    48B2     2.335048    48B3     2.342843
      50A      2.350281    50B1     2.415051    51B1     2.432049
      49B3     2.445297    51A      2.473210    49B2     2.539028
      50B2     2.549242    52A      2.555965    52B1     2.594569
      51B2     2.619031    50B3     2.662873    51B3     2.690671
      53A      2.704361    54A      2.723452    55A      2.753188
      52B2     2.755389    52B3     2.757525    53B1     2.769004
      53B3     2.778685    56A      2.806704    53B2     2.830200
      54B1     2.862474    55B1     2.882101    54B3     2.896850
      54B2     2.921259    56B1     2.933141    55B3     2.971020
      55B2     2.982733    57B1     3.008015    56B3     3.024776
      57A      3.028315    58B1     3.071404    58A      3.072123
      56B2     3.109133    59A      3.128719    59B1     3.128726
      57B3     3.129985    60A      3.145120    57B2     3.203489
      60B1     3.215200    58B2     3.224115    58B3     3.250002
      61A      3.257400    59B2     3.263399    62A      3.292550
      60B2     3.299822    59B3     3.301315    61B1     3.332551
      60B3     3.339698    61B3     3.351661    63A      3.357288
      61B2     3.390303    62B1     3.391197    63B1     3.411326
      64B1     3.430716    64A      3.443730    62B3     3.450121
      62B2     3.450162    63B3     3.484796    63B2     3.527566
      65A      3.532242    65B1     3.550891    64B2     3.559123
      66A      3.576927    64B3     3.579645    65B2     3.594926
      66B1     3.608269    67A      3.611017    65B3     3.676381
      67B1     3.713731    66B2     3.721609    68A      3.727298
      66B3     3.730801    68B1     3.822799    69B1     3.853105
      67B2     3.859674    67B3     3.864346    69A      3.866797
      68B3     3.885346    70A      3.902198    69B3     3.966501
      71A      3.968840    68B2     3.969189    70B1     3.975212
      69B2     4.013418    72A      4.017659    71B1     4.030397
      70B3     4.043206    70B2     4.045554    73A      4.069631
      71B2     4.137192    71B3     4.140027    72B1     4.159718
      72B2     4.164926    73B1     4.194060    74A      4.250153
      72B3     4.253631    74B1     4.346460    73B2     4.389384
      75A      4.396491    75B1     4.409881    73B3     4.411800
      76B1     4.476165    76A      4.491219    74B2     4.513669
      74B3     4.519827    75B3     4.573020    76B3     4.605297
      77A      4.624048    78A      4.632563    75B2     4.639064
      77B3     4.651986    77B1     4.669972    76B2     4.708707
      79A      4.780047    78B1     4.790645    77B2     4.862958
      80A      4.910316    78B3     4.912358    78B2     4.946024
      79B1     4.951898    81A      4.981468    80B1     5.029338
      82A      5.091583    79B2     5.118017    81B1     5.172915
      79B3     5.194181    83A      5.195202    80B3     5.260547
      80B2     5.262418    82B1     5.277581    81B3     5.284588
      81B2     5.337104    82B3     5.428550    84A      5.430232
      83B1     5.487420    82B2     5.511353    85A      5.587522
      84B1     5.667376    86A      5.667432    85B1     5.721088
      83B2     5.729141    83B3     5.741994    84B3     5.842496
      86B1     5.858432    85B3     5.891095    84B2     5.931408
      86B3     5.959090    87A      5.987153    87B1     6.019453
      88A      6.021423    85B2     6.030584    89A      6.088122
      86B2     6.091973    87B3     6.156999    88B1     6.162353
      87B2     6.190574    90A      6.204954    89B1     6.218901
      91A      6.225119    88B2     6.228698    89B2     6.306534
      90B1     6.407987    88B3     6.408151    89B3     6.460285
      92A      6.524788    91B1     6.530656    93A      6.675318
      90B2     6.698773    92B1     6.748552    90B3     6.839705
      94A      6.853429    93B1     6.899304    91B2     6.913669
      91B3     6.932526    92B2     7.028334    94B1     7.049976
      92B3     7.097743    95B1     7.147091    95A      7.210635
      93B3     7.227100    96A      7.283992    96B1     7.336296
      94B3     7.341130    93B2     7.368107    95B3     7.423636
      94B2     7.450795    97B1     7.478169    97A      7.559603
      96B3     7.589067    98B1     7.666735    95B2     7.681876
      98A      7.691591    99B1     7.916015    96B2     7.930744
      97B3     8.075457    99A      8.117293    97B2     8.170195
      98B3     8.177989   100B1     8.258420   100A      8.274115
     101A      8.436534    98B2     8.565399    99B3     8.617343
      99B2     8.719030   102A      8.752549   100B2     8.975154
     101B1     9.015742   102B1     9.054731   100B3     9.122031
     101B2     9.170136   102B2     9.206605   101B3     9.249410
     103A      9.278120   102B3     9.337920   103B1     9.411039
     103B2     9.437873   104B1     9.536215   103B3     9.589172
     104B2     9.635968   104A      9.667476   104B3     9.703760
     105A      9.797748   105B2     9.821144   105B1     9.844136
     106A      9.901742   105B3     9.956060   107A     10.002539
     106B1    10.071013   106B2    10.096289   107B1    10.184641
     108A     10.226304   106B3    10.321003   108B1    10.325352
     109A     10.328672   107B3    10.491640   109B1    10.564972
     110A     10.565624   107B2    10.581203   108B3    10.666281
     108B2    10.695700   111A     10.772376   109B2    10.803523
     109B3    10.879516   112A     10.969575   110B1    10.996690
     110B2    11.078980   111B1    11.176269   112B1    11.308866
     111B2    11.322128   110B3    11.323981   111B3    11.346666
     113A     11.378625   113B1    11.408901   114A     11.464115
     115A     11.602873   112B3    11.672410   112B2    11.716125
     113B3    11.738087   113B2    11.752990   114B1    11.776777
     114B3    11.808672   115B1    11.879994   116A     12.378029
     116B1    12.467743   114B2    12.505765   115B3    12.837645
     115B2    12.893745   117B1    12.943832   117A     12.965841
     116B3    12.968006   118B1    13.008175   118A     13.008592
     117B3    13.046896   119A     13.066619   116B2    13.111368
     119B1    13.122875   120B1    13.185525   117B2    13.218822
     120A     13.281149   121A     13.325602   118B2    13.330458
     118B3    13.373016   121B1    13.445447   119B2    13.447539
     119B3    13.465978   122A     13.497601   123A     13.548237
     120B3    13.555341   120B2    13.571029   121B3    13.635223
     122B1    13.652419   121B2    13.715742   122B2    13.733108
     123B1    13.747557   124B1    13.786063   124A     13.819405
     122B3    13.842071   123B3    14.021597   125A     14.038112
     125B1    14.125365   123B2    14.173106   124B2    14.232559
     126A     14.284847   126B1    14.306361   124B3    14.318479
     125B2    14.324594   125B3    14.343571   126B3    14.416631
     127A     14.430299   127B1    14.434536   128B1    14.464340
     126B2    14.470592   128A     14.480313   127B3    14.525538
     129B1    14.563976   129A     14.652003   128B3    14.693368
     127B2    14.705154   130A     14.749347   130B1    14.788151
     131A     14.805240   129B3    14.819459   128B2    14.880796
     129B2    15.001363   130B3    15.038473   132A     15.041434
     131B1    15.132895   132B1    15.164905   130B2    15.175679
     131B2    15.283062   133B1    15.332470   131B3    15.354673
     133A     15.370189   132B2    15.550661   132B3    15.564746
     134B1    15.609193   134A     15.664271   135B1    15.791062
     135A     15.822059   133B2    15.948739   136A     15.975801
     133B3    16.103442   137A     16.144719   134B3    16.205012
     134B2    16.250832   136B1    16.393412   138A     16.415691
     135B3    16.490356   137B1    16.496552   135B2    16.509895
     138B1    17.087596   136B3    17.246351   136B2    17.639870
     137B2    17.654518   137B3    17.675549   139B1    17.696320
     139A     17.887731   138B3    17.902070   138B2    17.996875
     139B3    18.046845   140B1    18.156766   141B1    18.230847
     139B2    18.250281   140A     18.253883   141A     18.380048
     140B3    18.611050   140B2    19.066323   142A     19.272434
     141B2    19.505164   141B3    19.545566   143A     19.548758
     142B1    19.798415   143B1    20.190795   144A     20.777172
     144B1    21.185803   142B3    21.397701   142B2    21.791854
     145A     41.085435   145B1    42.636481

    Beta Occupied:

       1A    -11.601773     1B1   -11.601235     2A     -1.282753
       2B1    -1.049045     1B3    -0.950472     1B2    -0.821973
       2B2    -0.673263

    Beta Virtual:

       3A     -0.443167     2B3    -0.163146     4A     -0.107413
       3B1    -0.089153     3B3    -0.086438     3B2    -0.071768
       4B2    -0.051927     5A     -0.051792     4B3    -0.031569
       4B1    -0.024643     6A     -0.021461     7A     -0.019879
       5B3    -0.017776     5B1    -0.008007     5B2     0.005978
       6B1     0.014495     6B3     0.025312     7B1     0.049584
       8A      0.055760     6B2     0.059748     9A      0.062067
       8B1     0.076264     7B3     0.081765     7B2     0.091089
       8B2     0.094911     8B3     0.102215     9B3     0.123366
      10A      0.125864     9B2     0.129220    11A      0.135284
      10B2     0.145018     9B1     0.148698    10B3     0.150261
      12A      0.152223    10B1     0.155227    11B3     0.157639
      11B2     0.159338    11B1     0.205856    12B1     0.212978
      13A      0.217600    13B1     0.234872    12B3     0.239362
      14A      0.243602    14B1     0.272152    15A      0.274557
      13B3     0.279640    14B3     0.305340    12B2     0.307970
      15B1     0.312347    13B2     0.322391    16A      0.328195
      14B2     0.342643    15B3     0.366101    17A      0.383285
      15B2     0.393429    16B3     0.409268    18A      0.412648
      16B2     0.414919    16B1     0.426526    17B1     0.436736
      17B2     0.451944    17B3     0.462286    19A      0.468909
      18B1     0.469636    18B3     0.475223    20A      0.485851
      19B3     0.491571    19B1     0.494081    18B2     0.521808
      21A      0.523727    20B1     0.527827    21B1     0.547638
      22B1     0.565988    19B2     0.567267    22A      0.574671
      23A      0.594543    20B2     0.597610    20B3     0.609229
      21B2     0.613173    21B3     0.625212    24A      0.648938
      22B3     0.657262    22B2     0.673791    23B2     0.705373
      23B1     0.712479    25A      0.716294    23B3     0.723301
      24B1     0.729535    24B3     0.747968    24B2     0.755984
      25B1     0.758762    25B2     0.764295    26B1     0.802250
      26A      0.803996    25B3     0.814828    27A      0.837544
      26B2     0.861443    27B1     0.900593    26B3     0.920144
      27B2     0.942071    28A      0.962207    28B1     0.974940
      27B3     0.995671    29A      1.011487    28B2     1.021202
      28B3     1.029714    29B1     1.039905    30A      1.044254
      29B3     1.055231    30B3     1.080544    30B1     1.103168
      31B1     1.109416    29B2     1.112317    31A      1.117195
      32A      1.139168    30B2     1.148186    32B1     1.164725
      31B3     1.171021    33A      1.199070    33B1     1.200732
      32B3     1.204766    34A      1.222708    31B2     1.244121
      35A      1.259260    33B3     1.275213    34B1     1.275277
      32B2     1.283080    33B2     1.310583    36A      1.319693
      34B3     1.332812    35B1     1.338535    34B2     1.356784
      36B1     1.372953    37A      1.374919    35B3     1.383833
      35B2     1.409577    36B2     1.428129    38A      1.446408
      36B3     1.459720    39A      1.466597    37B1     1.472254
      37B2     1.498389    37B3     1.506260    38B1     1.507837
      40A      1.516038    38B2     1.527519    39B1     1.540928
      38B3     1.545759    39B2     1.562874    39B3     1.618251
      40B1     1.636244    40B2     1.660812    40B3     1.669482
      41A      1.674340    41B1     1.682614    42A      1.717055
      42B1     1.718696    43A      1.753762    41B2     1.780465
      43B1     1.800025    44B1     1.820262    41B3     1.836247
      42B2     1.848425    42B3     1.855508    44A      1.869160
      45B1     1.891933    43B2     1.900671    45A      1.901666
      43B3     1.926733    46A      1.993752    44B2     1.996047
      47A      2.008858    44B3     2.010166    45B3     2.075918
      45B2     2.089530    48A      2.095181    46B1     2.124984
      47B1     2.165252    46B3     2.168746    46B2     2.222950
      48B1     2.224180    49A      2.267852    47B2     2.311260
      49B1     2.319044    47B3     2.332260    48B2     2.339127
      48B3     2.345664    50A      2.357766    50B1     2.419979
      51B1     2.433126    49B3     2.448177    51A      2.474710
      49B2     2.540385    50B2     2.552043    52A      2.572923
      52B1     2.597798    51B2     2.622389    50B3     2.664808
      51B3     2.700711    53A      2.711980    54A      2.727908
      52B2     2.756258    55A      2.757134    52B3     2.764476
      53B1     2.771098    53B3     2.783741    56A      2.809392
      53B2     2.836962    54B1     2.865121    55B1     2.884409
      54B3     2.899750    54B2     2.926940    56B1     2.937288
      55B3     2.976022    55B2     2.988188    57B1     3.014760
      56B3     3.031926    57A      3.032098    58A      3.073275
      58B1     3.084106    56B2     3.110999    59B1     3.133464
      59A      3.134367    57B3     3.138355    60A      3.147266
      57B2     3.206214    60B1     3.218256    58B2     3.225886
      58B3     3.251857    61A      3.265440    59B2     3.265680
      62A      3.300760    60B2     3.301246    59B3     3.302519
      61B1     3.338052    60B3     3.341422    61B3     3.354479
      63A      3.358674    62B1     3.393247    61B2     3.401072
      63B1     3.413152    64B1     3.433048    64A      3.445604
      62B2     3.451329    62B3     3.451840    63B3     3.488838
      63B2     3.534378    65A      3.534392    65B1     3.554180
      64B2     3.564780    66A      3.586322    64B3     3.587466
      65B2     3.597962    66B1     3.610719    67A      3.618540
      65B3     3.679751    67B1     3.718269    66B2     3.729892
      68A      3.732017    66B3     3.733537    68B1     3.828454
      69B1     3.857743    67B2     3.862940    67B3     3.870987
      69A      3.875459    68B3     3.888576    70A      3.907654
      69B3     3.970113    68B2     3.974869    71A      3.977336
      70B1     3.980107    69B2     4.016910    72A      4.022513
      71B1     4.037342    70B3     4.047512    70B2     4.048255
      73A      4.080699    71B3     4.142245    71B2     4.157702
      72B1     4.168643    72B2     4.168754    73B1     4.199348
      74A      4.262191    72B3     4.262644    74B1     4.353120
      73B2     4.391369    75A      4.401383    75B1     4.411684
      73B3     4.418191    76B1     4.478558    76A      4.502366
      74B2     4.515161    74B3     4.524497    75B3     4.577662
      76B3     4.616164    77A      4.626256    78A      4.633853
      75B2     4.645983    77B3     4.655728    77B1     4.672835
      76B2     4.714664    79A      4.790884    78B1     4.792686
      77B2     4.866734    80A      4.914601    78B3     4.915865
      78B2     4.953074    79B1     4.957280    81A      4.990013
      80B1     5.033383    82A      5.095473    79B2     5.120122
      81B1     5.176762    79B3     5.199616    83A      5.199790
      80B3     5.262933    80B2     5.266809    82B1     5.286860
      81B3     5.292237    81B2     5.341959    84A      5.432862
      82B3     5.435806    83B1     5.496319    82B2     5.516083
      85A      5.598988    86A      5.669737    84B1     5.672063
      85B1     5.724902    83B2     5.732894    83B3     5.745491
      84B3     5.844653    86B1     5.869874    85B3     5.895787
      84B2     5.934280    86B3     5.968496    87A      5.990836
      87B1     6.025716    88A      6.027877    85B2     6.036900
      89A      6.094684    86B2     6.096853    87B3     6.160510
      88B1     6.166074    87B2     6.196842    90A      6.210522
      89B1     6.223789    91A      6.229050    88B2     6.234813
      89B2     6.312401    90B1     6.411487    88B3     6.412428
      89B3     6.462737    92A      6.531296    91B1     6.537818
      93A      6.679123    90B2     6.702842    92B1     6.753110
      90B3     6.852868    94A      6.865007    93B1     6.906941
      91B2     6.916868    91B3     6.937230    92B2     7.036255
      94B1     7.056318    92B3     7.102781    95B1     7.151505
      95A      7.218970    93B3     7.232641    96A      7.287807
      96B1     7.340247    94B3     7.346724    93B2     7.374659
      95B3     7.431658    94B2     7.457323    97B1     7.487045
      97A      7.563885    96B3     7.595811    98B1     7.673293
      95B2     7.685493    98A      7.699584    99B1     7.921028
      96B2     7.935369    97B3     8.078442    99A      8.121643
      97B2     8.175728    98B3     8.188510   100B1     8.265516
     100A      8.282633   101A      8.443665    98B2     8.574482
      99B3     8.626059    99B2     8.737756   102A      8.772117
     100B2     8.979640   101B1     9.020518   102B1     9.065745
     100B3     9.130578   101B2     9.172744   102B2     9.217652
     101B3     9.257249   103A      9.286480   102B3     9.342037
     103B1     9.419599   103B2     9.445312   104B1     9.549532
     103B3     9.589837   104B2     9.636997   104A      9.673732
     104B3     9.705842   105A      9.808523   105B2     9.830264
     105B1     9.850126   106A      9.912860   105B3     9.967457
     107A     10.015317   106B1    10.076647   106B2    10.106681
     107B1    10.188138   108A     10.232734   106B3    10.330173
     108B1    10.334973   109A     10.336511   107B3    10.496982
     109B1    10.567756   110A     10.572134   107B2    10.586824
     108B3    10.673403   108B2    10.701626   111A     10.777140
     109B2    10.809744   109B3    10.886961   112A     10.981775
     110B1    11.005313   110B2    11.084589   111B1    11.188406
     112B1    11.319989   110B3    11.330726   111B2    11.336554
     111B3    11.362392   113A     11.386974   113B1    11.416027
     114A     11.471477   115A     11.608869   112B3    11.679902
     112B2    11.722162   113B3    11.748306   113B2    11.757618
     114B1    11.792579   114B3    11.816361   115B1    11.892485
     116A     12.398102   116B1    12.477052   114B2    12.519347
     115B3    12.847204   115B2    12.898650   117B1    12.946321
     117A     12.968205   116B3    12.970767   118B1    13.010701
     118A     13.010704   117B3    13.049980   119A     13.069224
     116B2    13.115051   119B1    13.125348   120B1    13.188130
     117B2    13.224316   120A     13.283594   121A     13.328121
     118B2    13.337620   118B3    13.375785   121B1    13.449009
     119B2    13.450687   119B3    13.471093   122A     13.501066
     123A     13.551616   120B3    13.559858   120B2    13.575403
     121B3    13.637906   122B1    13.654688   121B2    13.721401
     122B2    13.738313   123B1    13.749916   124B1    13.788731
     124A     13.822375   122B3    13.852733   123B3    14.026681
     125A     14.042769   125B1    14.128714   123B2    14.175754
     124B2    14.234954   126A     14.287227   126B1    14.314783
     124B3    14.321450   125B2    14.327547   125B3    14.345793
     126B3    14.418889   127A     14.434148   127B1    14.437396
     128B1    14.466961   126B2    14.472659   128A     14.483886
     127B3    14.529082   129B1    14.567973   129A     14.654566
     128B3    14.697916   127B2    14.709496   130A     14.753125
     130B1    14.797292   131A     14.808616   129B3    14.822437
     128B2    14.885542   129B2    15.005568   130B3    15.041349
     132A     15.045223   131B1    15.136219   132B1    15.168706
     130B2    15.180484   131B2    15.287764   133B1    15.339336
     131B3    15.359663   133A     15.380101   132B2    15.553867
     132B3    15.569121   134B1    15.612636   134A     15.668677
     135B1    15.795751   135A     15.825545   133B2    15.952670
     136A     15.980127   133B3    16.107416   137A     16.151163
     134B3    16.208367   134B2    16.254508   136B1    16.397306
     138A     16.422727   135B3    16.496245   137B1    16.501427
     135B2    16.514766   138B1    17.092806   136B3    17.250742
     136B2    17.644315   137B2    17.658154   137B3    17.678567
     139B1    17.699132   139A     17.890329   138B3    17.905864
     138B2    18.001067   139B3    18.051055   140B1    18.160354
     141B1    18.234660   139B2    18.253749   140A     18.258102
     141A     18.383519   140B3    18.615652   140B2    19.070871
     142A     19.276938   141B2    19.508376   141B3    19.549306
     143A     19.553144   142B1    19.802940   143B1    20.195801
     144A     20.781748   144B1    21.189926   142B3    21.402308
     142B2    21.796487   145A     41.087704   145B1    42.638764

    Final Occupation by Irrep:

  @UHF Final Energy:   -77.55170199945401

   => Energetics <=

    Nuclear Repulsion Energy =             32.4284541622280216
    One-Electron Energy =                -162.7325121411230953
    Two-Electron Energy =                  52.7523559794410630
    Total Energy =                        -77.5517019994539965
      * MP2 total energy                      =  -77.884966971890378
      * CCSD total energy                     =  -77.908860295926331
*** Psi4 exiting successfully. Buy a developer a beer!
