                               Psi4 1.2a1.dev938

  ==> Input File <==

--------------------------------------------------------------------------
# Any line starting with the # character is a comment line
memory 250000 mb
molecule molecule{
1 2
C          0.0000000000        0.0000000000        0.7044716158
C          0.0000000000        0.0000000000       -0.7044716158
H         -0.9270295001        0.1081930514       -1.2539243804
H          0.9270295001       -0.1081930514       -1.2539243804
H          0.9270295001        0.1081930514        1.2539243804
H         -0.9270295001       -0.1081930514        1.2539243804
}

set {
  reference uhf
  basis aug-cc-pv(d+d)z
  scf_type OUT_OF_CORE
  freeze_core true
}

energy('ccsd')
--------------------------------------------------------------------------

    Molecular point group: d2

    Geometry (in Angstrom), charge = 1, multiplicity = 2:

       Center              X                  Y                   Z               Mass
    ------------   -----------------  -----------------  -----------------  -----------------
           C          0.000000000000     0.000000000000     0.704471615800    12.000000000000
           C          0.000000000000     0.000000000000    -0.704471615800    12.000000000000
           H         -0.927029500100     0.108193051400    -1.253924380400     1.007825032070
           H          0.927029500100    -0.108193051400    -1.253924380400     1.007825032070
           H          0.927029500100     0.108193051400     1.253924380400     1.007825032070
           H         -0.927029500100    -0.108193051400     1.253924380400     1.007825032070

  Charge       = 1
  Multiplicity = 2
  Basis Set: AUG-CC-PV(D+D)Z
    Blend: AUG-CC-PV(D+D)Z

    Orbital Energies (a.u.)
    -----------------------

    Alpha Occupied:

       1A    -11.592879     1B1   -11.591627     2A     -1.369875
       2B1    -1.113773     1B3    -0.951775     3A     -0.893152
       1B2    -0.823326     2B2    -0.722593

    Alpha Virtual:

       2B3    -0.187555     4A     -0.110644     3B1    -0.084465
       3B3    -0.083737     3B2    -0.060563     4B2    -0.042164
       5A     -0.033326     4B3    -0.001252     6A      0.004718
       4B1     0.007348     5B3     0.019848     7A      0.028897
       5B1     0.053698     5B2     0.054742     6B3     0.071471
       6B1     0.083614     7B1     0.127390     8B1     0.179674
       8A      0.191016     9A      0.203211     6B2     0.215763
       7B2     0.249488     7B3     0.260091    10A      0.296950
       8B3     0.309334     8B2     0.316459     9B3     0.347051
       9B2     0.368639     9B1     0.370592    11A      0.381426
      10B3     0.390403    10B1     0.403177    12A      0.403998
      10B2     0.425899    11B1     0.433993    12B1     0.462370
      11B3     0.488688    13B1     0.550834    13A      0.579979
      11B2     0.595561    12B2     0.621607    14A      0.744099
      12B3     0.778545    13B3     0.905326    14B1     0.929304
      13B2     0.992371    15A      1.174792    14B3     1.185088
      14B2     1.187473    15B1     1.233792    16B1     1.341297
      16A      1.397220    17A      1.467790    15B2     1.490155
      18A      1.544825    15B3     1.570505    16B3     1.665904
      17B1     1.706223    19A      1.712286    16B2     1.786278
      18B1     1.801669    17B2     1.812826    17B3     1.871159
      19B1     1.885348    18B3     2.040480    20A      2.102784
      20B1     2.178066    21A      2.279543    18B2     2.363000
      21B1     2.443903    22A      2.539676    19B3     2.578891
      22B1     3.038359    19B2     3.073343

    Beta Occupied:

       1A    -11.582591     1B1   -11.581633     2A     -1.297897
       2B1    -1.085345     1B3    -0.938416     3A     -0.880353
       1B2    -0.817959

    Beta Virtual:

       2B2    -0.272653     4A     -0.108206     2B3    -0.093963
       3B1    -0.082835     3B3    -0.082729     3B2    -0.051072
       4B2    -0.034136     5A     -0.031966     4B1     0.008745
       6A      0.013373     4B3     0.020991     5B3     0.023257
       7A      0.038234     5B2     0.055763     5B1     0.056159
       6B3     0.075581     6B1     0.097124     7B1     0.135646
       8B1     0.187947     8A      0.194348     9A      0.207750
       6B2     0.226178     7B2     0.258434     7B3     0.262048
      10A      0.318775     8B2     0.319203     8B3     0.324417
       9B3     0.355617     9B2     0.380386     9B1     0.383847
      11A      0.386414    10B3     0.393623    12A      0.409625
      10B1     0.417811    10B2     0.428503    11B1     0.451789
      12B1     0.466995    11B3     0.496339    13B1     0.555125
      13A      0.591461    11B2     0.624100    12B2     0.649839
      14A      0.752826    12B3     0.814950    13B3     0.912338
      14B1     0.934605    13B2     0.998575    15A      1.183444
      14B3     1.188026    14B2     1.227408    15B1     1.256755
      16B1     1.349334    16A      1.426627    17A      1.481077
      15B2     1.492731    18A      1.554906    15B3     1.586429
      16B3     1.666084    17B1     1.725003    19A      1.733193
      16B2     1.796793    18B1     1.805436    17B2     1.814872
      17B3     1.874867    19B1     1.902984    18B3     2.059520
      20A      2.119547    20B1     2.189512    21A      2.283222
      18B2     2.365277    21B1     2.447256    22A      2.545662
      19B3     2.583083    22B1     3.043979    19B2     3.078396

    Final Occupation by Irrep:
              A    B1    B2    B3
    DOCC [     3,    2,    1,    1 ]
    SOCC [     0,    0,    1,    0 ]

  Energy converged.

  @UHF Final Energy:   -77.72093522312737

   => Energetics <=

    Nuclear Repulsion Energy =             32.4284541622280216
    One-Electron Energy =                -163.0555857853454995
    Two-Electron Energy =                  52.9061963999900939
    PCM Polarization Energy =               0.0000000000000000
    Total Energy =                        -77.7209352231273698

    Alert: EFP and PCM quantities not currently incorporated into SCF psivars.
  UHF NO Occupations:
  HONO-2 :    1 B3 1.9991400
  HONO-1 :    3  A 1.9988946
  HONO-0 :    2 B2 1.0000000
  LUNO+0 :    4  A 0.0011054
  LUNO+1 :    2 B3 0.0008600
  LUNO+2 :    3 B1 0.0007260
  LUNO+3 :    3 B2 0.0001883

Properties will be evaluated at   0.000000,   0.000000,   0.000000 Bohr

Properties computed using the SCF density matrix

  Nuclear Dipole Moment: (a.u.)
     X:     0.0000      Y:     0.0000      Z:     0.0000

  Electronic Dipole Moment: (a.u.)
     X:     0.0000      Y:     0.0000      Z:     0.0000

  Dipole Moment: (a.u.)
     X:     0.0000      Y:     0.0000      Z:     0.0000     Total:     0.0000

  Dipole Moment: (Debye)
     X:     0.0000      Y:     0.0000      Z:     0.0000     Total:     0.0000

*** tstop() called on cqc05 at Thu Aug 20 19:56:48 2020
Module time:
	user time   =       1.49 seconds =       0.02 minutes
	system time =       0.09 seconds =       0.00 minutes
	total time  =          1 seconds =       0.02 minutes
Total time:
	user time   =       1.49 seconds =       0.02 minutes
	system time =       0.09 seconds =       0.00 minutes
	total time  =          1 seconds =       0.02 minutes

*** tstart() called on cqc05
*** at Thu Aug 20 19:56:48 2020

	Wfn Parameters:
	--------------------
	Wavefunction         = CCSD
	Number of irreps     = 4
	Number of MOs        = 82
	Number of active MOs = 80
	AO-Basis             = NONE
	Semicanonical        = false
	Reference            = UHF
	Print Level          = 1

	IRREP	# MOs	# FZDC	# DOCC	# SOCC	# VIRT	# FZVR
	-----	-----	------	------	------	------	------
	 A	   22	    1	    2	    0	    19	    0
	 B1	   22	    1	    1	    0	    20	    0
	 B2	   19	    0	    1	    1	    17	    0
	 B3	   19	    0	    1	    0	    18	    0
	Transforming integrals...
	IWL integrals will be deleted.
	(OO|OO)...
	Presorting SO-basis two-electron integrals.
	Sorting File: SO Ints (nn|nn) nbuckets = 1
	Transforming the one-electron integrals and constructing Fock matrices
	Starting AA/AB first half-transformation.
	Sorting AA/AB half-transformed integrals.
	Starting BB first half-transformation.
	Sorting BB half-transformed integrals.
	First half integral transformation complete.
	Starting AA second half-transformation.
	Starting AB second half-transformation.
	Starting BB second half-transformation.
	Two-electron integral transformation complete.
	(OO|OV)...
	Starting AA second half-transformation.
	Starting AB second half-transformation.
	Starting BB second half-transformation.
	Two-electron integral transformation complete.
	(OO|VV)...
	Starting AA second half-transformation.
	Starting AB second half-transformation.
	Starting BB second half-transformation.
	Two-electron integral transformation complete.
	(OV|OO)...
	Starting AA/AB first half-transformation.
	Sorting AA/AB half-transformed integrals.
	Starting BB first half-transformation.
	Sorting BB half-transformed integrals.
	First half integral transformation complete.
	Starting AA second half-transformation.
	Starting AB second half-transformation.
	Starting BB second half-transformation.
	Two-electron integral transformation complete.
	(OV|OV)...
	Starting AA second half-transformation.
	Starting AB second half-transformation.
	Starting BB second half-transformation.
	Two-electron integral transformation complete.
	(OV|VV)...
	Starting AA second half-transformation.
	Starting AB second half-transformation.
	Starting BB second half-transformation.
	Two-electron integral transformation complete.
	(VV|OO)...
	Starting AA/AB first half-transformation.
	Sorting AA/AB half-transformed integrals.
	Starting BB first half-transformation.
	Sorting BB half-transformed integrals.
	First half integral transformation complete.
	Starting AA second half-transformation.
	Starting AB second half-transformation.
	Starting BB second half-transformation.
	Two-electron integral transformation complete.
	(VV|OV)...
	Starting AA second half-transformation.
	Starting AB second half-transformation.
	Starting BB second half-transformation.
	Two-electron integral transformation complete.
	(VV|VV)...
	Starting AA second half-transformation.
	Starting AB second half-transformation.
	Starting BB second half-transformation.
	Two-electron integral transformation complete.
	Frozen core energy     =    -78.08924859665632

	Size of irrep 0 of <AB|CD> integrals:      0.422 (MW) /      3.380 (MB)
	Size of irrep 1 of <AB|CD> integrals:      0.471 (MW) /      3.765 (MB)
	Size of irrep 2 of <AB|CD> integrals:      0.466 (MW) /      3.732 (MB)
	Size of irrep 3 of <AB|CD> integrals:      0.465 (MW) /      3.721 (MB)
	Total:                                     1.825 (MW) /     14.598 (MB)

	Size of irrep 0 of <ab|cd> integrals:      0.445 (MW) /      3.559 (MB)
	Size of irrep 1 of <ab|cd> integrals:      0.496 (MW) /      3.965 (MB)
	Size of irrep 2 of <ab|cd> integrals:      0.493 (MW) /      3.942 (MB)
	Size of irrep 3 of <ab|cd> integrals:      0.493 (MW) /      3.942 (MB)
	Total:                                     1.926 (MW) /     15.409 (MB)

	Size of irrep 0 of <Ab|Cd> integrals:      1.935 (MW) /     15.479 (MB)
	Size of irrep 1 of <Ab|Cd> integrals:      1.932 (MW) /     15.457 (MB)
	Size of irrep 2 of <Ab|Cd> integrals:      1.918 (MW) /     15.346 (MB)
	Size of irrep 3 of <Ab|Cd> integrals:      1.915 (MW) /     15.324 (MB)
	Total:                                     7.701 (MW) /     61.605 (MB)

	Size of irrep 0 of <IA|BC> integrals:      0.151 (MW) /      1.209 (MB)
	Size of irrep 1 of <IA|BC> integrals:      0.154 (MW) /      1.229 (MB)
	Size of irrep 2 of <IA|BC> integrals:      0.150 (MW) /      1.202 (MB)
	Size of irrep 3 of <IA|BC> integrals:      0.153 (MW) /      1.222 (MB)
	Total:                                     0.608 (MW) /      4.863 (MB)

	Size of irrep 0 of <ia|bc> integrals:      0.132 (MW) /      1.060 (MB)
	Size of irrep 1 of <ia|bc> integrals:      0.134 (MW) /      1.070 (MB)
	Size of irrep 2 of <ia|bc> integrals:      0.131 (MW) /      1.045 (MB)
	Size of irrep 3 of <ia|bc> integrals:      0.131 (MW) /      1.045 (MB)
	Total:                                     0.527 (MW) /      4.219 (MB)

	Size of irrep 0 of <Ia|Bc> integrals:      0.156 (MW) /      1.246 (MB)
	Size of irrep 1 of <Ia|Bc> integrals:      0.157 (MW) /      1.257 (MB)
	Size of irrep 2 of <Ia|Bc> integrals:      0.155 (MW) /      1.241 (MB)
	Size of irrep 3 of <Ia|Bc> integrals:      0.156 (MW) /      1.251 (MB)
	Total:                                     0.624 (MW) /      4.995 (MB)

	Size of irrep 0 of <iA|bC> integrals:      0.129 (MW) /      1.035 (MB)
	Size of irrep 1 of <iA|bC> integrals:      0.131 (MW) /      1.045 (MB)
	Size of irrep 2 of <iA|bC> integrals:      0.126 (MW) /      1.008 (MB)
	Size of irrep 3 of <iA|bC> integrals:      0.127 (MW) /      1.019 (MB)
	Total:                                     0.513 (MW) /      4.107 (MB)

	Size of irrep 0 of tIjAb amplitudes:       0.011 (MW) /      0.089 (MB)
	Size of irrep 1 of tIjAb amplitudes:       0.010 (MW) /      0.078 (MB)
	Size of irrep 2 of tIjAb amplitudes:       0.011 (MW) /      0.089 (MB)
	Size of irrep 3 of tIjAb amplitudes:       0.010 (MW) /      0.078 (MB)
	Total:                                     0.042 (MW) /      0.333 (MB)

	Nuclear Rep. energy          =     32.42845416222802
	SCF energy                   =    -77.72093522312737
	One-electron energy          =    -53.22581739640702
	Two-electron (AA) energy     =      5.26950229334637
	Two-electron (BB) energy     =      3.33683225347522
	Two-electron (AB) energy     =     12.55934206088643
	Two-electron energy          =     21.16567660770803
	Reference energy             =    -77.72093522312728

*** tstop() called on cqc05 at Thu Aug 20 19:56:49 2020
Module time:
	user time   =       0.86 seconds =       0.01 minutes
	system time =       0.45 seconds =       0.01 minutes
	total time  =          1 seconds =       0.02 minutes
Total time:
	user time   =       2.35 seconds =       0.04 minutes
	system time =       0.54 seconds =       0.01 minutes
	total time  =          2 seconds =       0.03 minutes

*** tstart() called on cqc05
*** at Thu Aug 20 19:56:49 2020

            **************************
            *                        *
            *        CCENERGY        *
            *                        *
            **************************

    Nuclear Rep. energy (wfn)     =   32.428454162228022
    SCF energy          (wfn)     =  -77.720935223127370
    Reference energy    (file100) =  -77.720935223127285

    Input parameters:
    -----------------
    Wave function   =     CCSD
    Reference wfn   =     UHF
    Brueckner       =     No
    Memory (Mbytes) =     250000.0
    Maxiter         =     50
    R_Convergence   =     1.0e-07
    E_Convergence   =     1.0e-06
    Restart         =     Yes
    DIIS            =     Yes
    AO Basis        =     NONE
    ABCD            =     NEW
    Cache Level     =     2
    Cache Type      =     LRU
    Print Level     =     1
    Num. of threads =     4
    # Amps to Print =     10
    Print MP2 Amps? =     No
    Analyze T2 Amps =     No
    Print Pair Ener =     No
    Local CC        =     No
    SCS-MP2         =     False
    SCSN-MP2        =     False
    SCS-CCSD        =     False

MP2 correlation energy -0.2269103442694398
                Solving CC Amplitude Equations
                ------------------------------
  Iter             Energy              RMS        T1Diag      D1Diag    New D1Diag    D2Diag
  ----     ---------------------    ---------   ----------  ----------  ----------   --------
     0        -0.226910344269440    0.000e+00    0.000000    0.000000    0.000000    0.000000
     1        -0.252924930451689    5.178e-02    0.007634    0.000000    0.000000    0.000000
     2        -0.261260231072714    1.695e-02    0.010467    0.000000    0.000000    0.000000
     3        -0.261765695213268    5.762e-03    0.011624    0.000000    0.000000    0.000000
     4        -0.261779296395260    3.183e-03    0.012529    0.000000    0.000000    0.000000
     5        -0.261795248888586    2.174e-03    0.013508    0.000000    0.000000    0.000000
     6        -0.261804744650651    1.122e-03    0.014217    0.000000    0.000000    0.000000
     7        -0.261807074227512    4.782e-04    0.014563    0.000000    0.000000    0.000000
     8        -0.261805844027249    1.296e-04    0.014609    0.000000    0.000000    0.000000
     9        -0.261805620006832    4.494e-05    0.014608    0.000000    0.000000    0.000000
    10        -0.261805978603396    1.591e-05    0.014611    0.000000    0.000000    0.000000
    11        -0.261806123741206    5.798e-06    0.014610    0.000000    0.000000    0.000000
    12        -0.261806210792122    1.920e-06    0.014609    0.000000    0.000000    0.000000
    13        -0.261806216135315    6.495e-07    0.014610    0.000000    0.000000    0.000000
    14        -0.261806213045832    2.426e-07    0.014609    0.000000    0.000000    0.000000
    15        -0.261806213040755    7.995e-08    0.014609    0.000000    0.000000    0.000000
    15        -0.261806213040755    7.995e-08    0.014609    0.000000    0.000000    0.000000

    Iterations converged.

    CCSD corr. energy   =   -0.261806213040755
    PPL corr. energy    =    0.061971242097939
    OS PPL corr. energy =    0.053665567953887
    SS PPL corr. energy =    0.008305674144051
    Largest TIA Amplitudes:
              4  47         0.0118958950
              4  45         0.0091691579
              4  50         0.0074673992
              4  44        -0.0052753720
              1  14        -0.0048392796
              4  42         0.0038545546
              4  52         0.0035842921
              1  17        -0.0034916324
              5  60         0.0034876223
              4  39        -0.0034063307

    Largest Tia Amplitudes:
              3  39        -0.0333248680
              4  57         0.0086321587
              3  41        -0.0064476243
              2  27         0.0059779398
              4  60         0.0055926678
              4  61         0.0053905131
              0   6        -0.0044650173
              4  65         0.0044540449
              1  14         0.0043838052
              1  17         0.0041166233

    Largest TIJAB Amplitudes:
      4   1  56  24         0.0341467373
      4   1  56  25         0.0263097479
      4   1  56  28         0.0189389850
      4   1  56  30         0.0188284737
      4   1  56  27        -0.0187664409
      4   3  60  56        -0.0168262442
      4   2  56   6        -0.0161573536
      4   3  61  56         0.0151282606
      4   3  63  56        -0.0138303266
      4   2  56   0         0.0131658493

    Largest Tijab Amplitudes:
      3   1  61  24         0.0101899885
      1   0  51  39        -0.0084260294
      2   0  57  39        -0.0080755142
      4   1  61   5        -0.0080688164
      4   1  61   8         0.0071896814
      3   1  65  24         0.0062960887
      3   1  61  28        -0.0062379347
      3   1  69  24        -0.0062370176
      4   2  61  24         0.0062108881
      3   0  39   9        -0.0061839152

    Largest TIjAb Amplitudes:

      * MP2 total energy                      =  -77.947845567396726
      * CCSD total energy                     =  -77.982741436168041
*** Psi4 exiting successfully. Buy a developer a beer!
