                               Psi4 1.2a1.dev938

  ==> Input File <==

--------------------------------------------------------------------------
# Any line starting with the # character is a comment line
memory 250000 mb
molecule molecule{
0 3
S          0.0000000000        0.0000000000        0.9552576298
S          0.0000000000        0.0000000000       -0.9552576298
}

set {
  reference uhf
  basis aug-cc-pv(t+d)z
  scf_type OUT_OF_CORE
  freeze_core true
}

energy('ccsd')
--------------------------------------------------------------------------

    Molecular point group: d2h

    Geometry (in Angstrom), charge = 0, multiplicity = 3:

       Center              X                  Y                   Z               Mass
    ------------   -----------------  -----------------  -----------------  -----------------
           S          0.000000000000     0.000000000000     0.955257629800    31.972070999000
           S          0.000000000000     0.000000000000    -0.955257629800    31.972070999000

  Charge       = 0
  Multiplicity = 3
  Basis Set: AUG-CC-PV(T+D)Z
    Blend: AUG-CC-PV(T+D)Z

    Orbital Energies (a.u.)
    -----------------------

    Alpha Occupied:

       1Ag   -92.023042     1B1u  -92.023039     2Ag    -9.021359
       2B1u   -9.021029     1B3u   -6.708131     1B2u   -6.708131
       1B2g   -6.708078     1B3g   -6.708078     3Ag    -6.697868
       3B1u   -6.696961     4Ag    -1.107649     4B1u   -0.871076
       2B3u   -0.534120     2B2u   -0.534120     5Ag    -0.533037
       2B3g   -0.384316     2B2g   -0.384316

    Alpha Virtual:

       5B1u    0.049909     6Ag     0.089990     3B2u    0.092090
       3B3u    0.092090     7Ag     0.114294     3B3g    0.115896
       3B2g    0.115896     6B1u    0.143909     1B1g    0.219710
       8Ag     0.219710     7B1u    0.227865     4B2u    0.276479
       4B3u    0.276479     9Ag     0.308320     8B1u    0.324599
       1Au     0.324599     4B3g    0.393221     4B2g    0.393221
       9B1u    0.410767     5B3u    0.512559     5B2u    0.512559
      10Ag     0.607178     6B2u    0.607869     6B3u    0.607869
      10B1u    0.618562     5B3g    0.626715     5B2g    0.626715
      11Ag     0.629831     2B1g    0.629831    12Ag     0.637213
       2Au     0.716248    11B1u    0.716248    13Ag     0.759944
       7B3u    0.779674     7B2u    0.779674     6B3g    0.831262
       6B2g    0.831262     3B1g    0.863802    14Ag     0.863802
       7B2g    0.931915     7B3g    0.931915    12B1u    0.973195
       8B2u    1.116006     8B3u    1.116006    13B1u    1.140557
       3Au     1.140557    14B1u    1.198170     8B3g    1.306917
       8B2g    1.306917    15Ag     1.413083    15B1u    1.547800
      16Ag     1.870206     4B1g    1.870206     9B2u    1.930987
       9B3u    1.930987    16B1u    1.942426     4Au     1.948895
      17B1u    1.948895     9B3g    2.086197     9B2g    2.086197
      17Ag     2.105381    18Ag     2.212202     5B1g    2.212202
      10B2u    2.212282    10B3u    2.212282    19Ag     2.225558
      11B3u    2.278693    11B2u    2.278693    12B2u    2.306725
      12B3u    2.306725    10B2g    2.352920    10B3g    2.352920
      18B1u    2.527102     5Au     2.527102    11B2g    2.544802
      11B3g    2.544802    19B1u    2.663001    12B3g    2.890073
      12B2g    2.890073    20Ag     2.897499    20B1u    3.920799
      21Ag     4.868016    21B1u    5.595374     6B1g    7.267722
      22Ag     7.267722    22B1u    7.303088     6Au     7.303088
      13B2u    7.306195    13B3u    7.306195    23Ag     7.424449
      13B3g    7.439536    13B2g    7.439536    23B1u    7.684271

    Beta Occupied:

       1Ag   -92.011747     1B1u  -92.011742     2Ag    -9.009160
       2B1u   -9.008727     3Ag    -6.692674     3B1u   -6.691719
       1B3u   -6.679860     1B2u   -6.679860     1B2g   -6.679769
       1B3g   -6.679769     4Ag    -1.042362     4B1u   -0.728009
       5Ag    -0.494057     2B3u   -0.409521     2B2u   -0.409521

    Beta Virtual:

       2B3g    0.003183     2B2g    0.003183     5B1u    0.053706
       6Ag     0.092492     3B2u    0.094830     3B3u    0.094830
       7Ag     0.112023     3B3g    0.128436     3B2g    0.128436
       6B1u    0.163786     8Ag     0.235159     1B1g    0.235159
       7B1u    0.235942     4B2u    0.302808     4B3u    0.302808
       9Ag     0.317874     1Au     0.353683     8B1u    0.353683
       4B3g    0.410942     4B2g    0.410942     9B1u    0.423286
       5B2u    0.529791     5B3u    0.529791    10Ag     0.620723
      10B1u    0.627735    11Ag     0.642753     6B2u    0.650240
       6B3u    0.650240     5B3g    0.657719     5B2g    0.657719
      12Ag     0.669965     2B1g    0.669965    13Ag     0.777263
       7B3u    0.789868     7B2u    0.789868     2Au     0.791698
      11B1u    0.791698     6B3g    0.863642     6B2g    0.863642
      14Ag     0.885009     3B1g    0.885009     7B2g    0.951852
       7B3g    0.951852    12B1u    0.993462     8B2u    1.128362
       8B3u    1.128362    13B1u    1.154914     3Au     1.154914
      14B1u    1.211187     8B3g    1.325681     8B2g    1.325681
      15Ag     1.440291    15B1u    1.572373    16Ag     1.905038
       4B1g    1.905038     9B2u    1.941617     9B3u    1.941617
      16B1u    1.949706     4Au     1.980923    17B1u    1.980923
      17Ag     2.109050     9B3g    2.115630     9B2g    2.115630
      10B2u    2.232671    10B3u    2.232671    18Ag     2.233338
       5B1g    2.233751    19Ag     2.233751    11B3u    2.323076
      11B2u    2.323076    12B2u    2.350670    12B3u    2.350670
      10B2g    2.398306    10B3g    2.398306    18B1u    2.556266
       5Au     2.556266    11B2g    2.571328    11B3g    2.571328
      19B1u    2.678784    20Ag     2.908050    12B3g    2.912716
      12B2g    2.912716    20B1u    3.925941    21Ag     4.890562
      21B1u    5.615554     6B1g    7.280599    22Ag     7.280599
      13B2u    7.312413    13B3u    7.312413    22B1u    7.316130
       6Au     7.316130    23Ag     7.428089    13B3g    7.446361
      13B2g    7.446361    23B1u    7.689731

    Final Occupation by Irrep:
             Ag   B1g   B2g   B3g    Au   B1u   B2u   B3u
    DOCC [     5,    0,    1,    1,    0,    4,    2,    2 ]
    SOCC [     0,    0,    1,    1,    0,    0,    0,    0 ]

  Energy converged.

  @UHF Final Energy:  -795.10101988296435

   => Energetics <=

    Nuclear Repulsion Energy =             70.9072407133785276
    One-Electron Energy =               -1240.1236768124279024
    Two-Electron Energy =                 374.1154162160850092
    PCM Polarization Energy =               0.0000000000000000
    Total Energy =                       -795.1010198829643514

    Alert: EFP and PCM quantities not currently incorporated into SCF psivars.
  UHF NO Occupations:
  HONO-2 :    2B2u 1.9880500
  HONO-1 :    2B2g 1.0000000
  HONO-0 :    2B3g 1.0000000
  LUNO+0 :    3B3u 0.0119500
  LUNO+1 :    3B2u 0.0119500
  LUNO+2 :    5B1u 0.0038502
  LUNO+3 :    6 Ag 0.0028802

Properties will be evaluated at   0.000000,   0.000000,   0.000000 Bohr

Properties computed using the SCF density matrix

  Nuclear Dipole Moment: (a.u.)
     X:     0.0000      Y:     0.0000      Z:     0.0000

  Electronic Dipole Moment: (a.u.)
     X:     0.0000      Y:     0.0000      Z:     0.0000

  Dipole Moment: (a.u.)
     X:     0.0000      Y:     0.0000      Z:     0.0000     Total:     0.0000

  Dipole Moment: (Debye)
     X:     0.0000      Y:     0.0000      Z:     0.0000     Total:     0.0000

*** tstop() called on cqc05 at Thu Aug 20 20:06:00 2020
Module time:
	user time   =       3.26 seconds =       0.05 minutes
	system time =       0.08 seconds =       0.00 minutes
	total time  =          2 seconds =       0.03 minutes
Total time:
	user time   =       3.26 seconds =       0.05 minutes
	system time =       0.08 seconds =       0.00 minutes
	total time  =          2 seconds =       0.03 minutes

*** tstart() called on cqc05
*** at Thu Aug 20 20:06:00 2020

	Wfn Parameters:
	--------------------
	Wavefunction         = CCSD
	Number of irreps     = 8
	Number of MOs        = 110
	Number of active MOs = 100
	AO-Basis             = NONE
	Semicanonical        = false
	Reference            = UHF
	Print Level          = 1

	IRREP	# MOs	# FZDC	# DOCC	# SOCC	# VIRT	# FZVR
	-----	-----	------	------	------	------	------
	 Ag	   23	    3	    2	    0	    18	    0
	 B1g	   6	    0	    0	    0	    6	    0
	 B2g	   13	    1	    0	    1	    11	    0
	 B3g	   13	    1	    0	    1	    11	    0
	 Au	   6	    0	    0	    0	    6	    0
	 B1u	   23	    3	    1	    0	    19	    0
	 B2u	   13	    1	    1	    0	    11	    0
	 B3u	   13	    1	    1	    0	    11	    0
	Transforming integrals...
	IWL integrals will be deleted.
	(OO|OO)...
	Presorting SO-basis two-electron integrals.
	Sorting File: SO Ints (nn|nn) nbuckets = 1
	Transforming the one-electron integrals and constructing Fock matrices
	Starting AA/AB first half-transformation.
	Sorting AA/AB half-transformed integrals.
	Starting BB first half-transformation.
	Sorting BB half-transformed integrals.
	First half integral transformation complete.
	Starting AA second half-transformation.
	Starting AB second half-transformation.
	Starting BB second half-transformation.
	Two-electron integral transformation complete.
	(OO|OV)...
	Starting AA second half-transformation.
	Starting AB second half-transformation.
	Starting BB second half-transformation.
	Two-electron integral transformation complete.
	(OO|VV)...
	Starting AA second half-transformation.
	Starting AB second half-transformation.
	Starting BB second half-transformation.
	Two-electron integral transformation complete.
	(OV|OO)...
	Starting AA/AB first half-transformation.
	Sorting AA/AB half-transformed integrals.
	Starting BB first half-transformation.
	Sorting BB half-transformed integrals.
	First half integral transformation complete.
	Starting AA second half-transformation.
	Starting AB second half-transformation.
	Starting BB second half-transformation.
	Two-electron integral transformation complete.
	(OV|OV)...
	Starting AA second half-transformation.
	Starting AB second half-transformation.
	Starting BB second half-transformation.
	Two-electron integral transformation complete.
	(OV|VV)...
	Starting AA second half-transformation.
	Starting AB second half-transformation.
	Starting BB second half-transformation.
	Two-electron integral transformation complete.
	(VV|OO)...
	Starting AA/AB first half-transformation.
	Sorting AA/AB half-transformed integrals.
	Starting BB first half-transformation.
	Sorting BB half-transformed integrals.
	First half integral transformation complete.
	Starting AA second half-transformation.
	Starting AB second half-transformation.
	Starting BB second half-transformation.
	Two-electron integral transformation complete.
	(VV|OV)...
	Starting AA second half-transformation.
	Starting AB second half-transformation.
	Starting BB second half-transformation.
	Two-electron integral transformation complete.
	(VV|VV)...
	Starting AA second half-transformation.
	Starting AB second half-transformation.
	Starting BB second half-transformation.
	Two-electron integral transformation complete.
	Frozen core energy     =   -836.04001736011389

	Size of irrep 0 of <AB|CD> integrals:      0.329 (MW) /      2.636 (MB)
	Size of irrep 1 of <AB|CD> integrals:      0.215 (MW) /      1.722 (MB)
	Size of irrep 2 of <AB|CD> integrals:      0.291 (MW) /      2.324 (MB)
	Size of irrep 3 of <AB|CD> integrals:      0.291 (MW) /      2.324 (MB)
	Size of irrep 4 of <AB|CD> integrals:      0.215 (MW) /      1.722 (MB)
	Size of irrep 5 of <AB|CD> integrals:      0.384 (MW) /      3.075 (MB)
	Size of irrep 6 of <AB|CD> integrals:      0.291 (MW) /      2.324 (MB)
	Size of irrep 7 of <AB|CD> integrals:      0.291 (MW) /      2.324 (MB)
	Total:                                     2.307 (MW) /     18.452 (MB)

	Size of irrep 0 of <ab|cd> integrals:      0.355 (MW) /      2.842 (MB)
	Size of irrep 1 of <ab|cd> integrals:      0.237 (MW) /      1.897 (MB)
	Size of irrep 2 of <ab|cd> integrals:      0.317 (MW) /      2.536 (MB)
	Size of irrep 3 of <ab|cd> integrals:      0.317 (MW) /      2.536 (MB)
	Size of irrep 4 of <ab|cd> integrals:      0.236 (MW) /      1.890 (MB)
	Size of irrep 5 of <ab|cd> integrals:      0.412 (MW) /      3.297 (MB)
	Size of irrep 6 of <ab|cd> integrals:      0.318 (MW) /      2.545 (MB)
	Size of irrep 7 of <ab|cd> integrals:      0.318 (MW) /      2.545 (MB)
	Total:                                     2.511 (MW) /     20.087 (MB)

	Size of irrep 0 of <Ab|Cd> integrals:      1.595 (MW) /     12.761 (MB)
	Size of irrep 1 of <Ab|Cd> integrals:      0.902 (MW) /      7.220 (MB)
	Size of irrep 2 of <Ab|Cd> integrals:      1.214 (MW) /      9.715 (MB)
	Size of irrep 3 of <Ab|Cd> integrals:      1.214 (MW) /      9.715 (MB)
	Size of irrep 4 of <Ab|Cd> integrals:      0.902 (MW) /      7.220 (MB)
	Size of irrep 5 of <Ab|Cd> integrals:      1.593 (MW) /     12.741 (MB)
	Size of irrep 6 of <Ab|Cd> integrals:      1.217 (MW) /      9.733 (MB)
	Size of irrep 7 of <Ab|Cd> integrals:      1.217 (MW) /      9.733 (MB)
	Total:                                     9.855 (MW) /     78.839 (MB)

	Size of irrep 0 of <IA|BC> integrals:      0.123 (MW) /      0.983 (MB)
	Size of irrep 1 of <IA|BC> integrals:      0.058 (MW) /      0.460 (MB)
	Size of irrep 2 of <IA|BC> integrals:      0.088 (MW) /      0.707 (MB)
	Size of irrep 3 of <IA|BC> integrals:      0.088 (MW) /      0.707 (MB)
	Size of irrep 4 of <IA|BC> integrals:      0.058 (MW) /      0.460 (MB)
	Size of irrep 5 of <IA|BC> integrals:      0.124 (MW) /      0.992 (MB)
	Size of irrep 6 of <IA|BC> integrals:      0.088 (MW) /      0.707 (MB)
	Size of irrep 7 of <IA|BC> integrals:      0.088 (MW) /      0.707 (MB)
	Total:                                     0.716 (MW) /      5.724 (MB)

	Size of irrep 0 of <ia|bc> integrals:      0.099 (MW) /      0.793 (MB)
	Size of irrep 1 of <ia|bc> integrals:      0.039 (MW) /      0.312 (MB)
	Size of irrep 2 of <ia|bc> integrals:      0.068 (MW) /      0.540 (MB)
	Size of irrep 3 of <ia|bc> integrals:      0.068 (MW) /      0.540 (MB)
	Size of irrep 4 of <ia|bc> integrals:      0.041 (MW) /      0.327 (MB)
	Size of irrep 5 of <ia|bc> integrals:      0.103 (MW) /      0.822 (MB)
	Size of irrep 6 of <ia|bc> integrals:      0.065 (MW) /      0.523 (MB)
	Size of irrep 7 of <ia|bc> integrals:      0.065 (MW) /      0.523 (MB)
	Total:                                     0.548 (MW) /      4.381 (MB)

	Size of irrep 0 of <Ia|Bc> integrals:      0.128 (MW) /      1.021 (MB)
	Size of irrep 1 of <Ia|Bc> integrals:      0.061 (MW) /      0.486 (MB)
	Size of irrep 2 of <Ia|Bc> integrals:      0.093 (MW) /      0.741 (MB)
	Size of irrep 3 of <Ia|Bc> integrals:      0.093 (MW) /      0.741 (MB)
	Size of irrep 4 of <Ia|Bc> integrals:      0.061 (MW) /      0.486 (MB)
	Size of irrep 5 of <Ia|Bc> integrals:      0.129 (MW) /      1.030 (MB)
	Size of irrep 6 of <Ia|Bc> integrals:      0.092 (MW) /      0.732 (MB)
	Size of irrep 7 of <Ia|Bc> integrals:      0.092 (MW) /      0.732 (MB)
	Total:                                     0.746 (MW) /      5.969 (MB)

	Size of irrep 0 of <iA|bC> integrals:      0.097 (MW) /      0.778 (MB)
	Size of irrep 1 of <iA|bC> integrals:      0.038 (MW) /      0.304 (MB)
	Size of irrep 2 of <iA|bC> integrals:      0.064 (MW) /      0.511 (MB)
	Size of irrep 3 of <iA|bC> integrals:      0.064 (MW) /      0.511 (MB)
	Size of irrep 4 of <iA|bC> integrals:      0.038 (MW) /      0.304 (MB)
	Size of irrep 5 of <iA|bC> integrals:      0.098 (MW) /      0.787 (MB)
	Size of irrep 6 of <iA|bC> integrals:      0.063 (MW) /      0.503 (MB)
	Size of irrep 7 of <iA|bC> integrals:      0.063 (MW) /      0.503 (MB)
	Total:                                     0.525 (MW) /      4.202 (MB)

	Size of irrep 0 of tIjAb amplitudes:       0.009 (MW) /      0.071 (MB)
	Size of irrep 1 of tIjAb amplitudes:       0.002 (MW) /      0.015 (MB)
	Size of irrep 2 of tIjAb amplitudes:       0.004 (MW) /      0.035 (MB)
	Size of irrep 3 of tIjAb amplitudes:       0.004 (MW) /      0.035 (MB)
	Size of irrep 4 of tIjAb amplitudes:       0.002 (MW) /      0.015 (MB)
	Size of irrep 5 of tIjAb amplitudes:       0.008 (MW) /      0.061 (MB)
	Size of irrep 6 of tIjAb amplitudes:       0.006 (MW) /      0.044 (MB)
	Size of irrep 7 of tIjAb amplitudes:       0.006 (MW) /      0.044 (MB)
	Total:                                     0.040 (MW) /      0.320 (MB)

	Nuclear Rep. energy          =     70.90724071337853
	SCF energy                   =   -795.10101988296435
	One-electron energy          =    -52.50438401633220
	Two-electron (AA) energy     =      6.50859240005705
	Two-electron (BB) energy     =      3.14348553914854
	Two-electron (AB) energy     =     12.88406284089648
	Two-electron energy          =     22.53614078010207
	Reference energy             =   -795.10101988296549

*** tstop() called on cqc05 at Thu Aug 20 20:06:02 2020
Module time:
	user time   =       1.27 seconds =       0.02 minutes
	system time =       0.70 seconds =       0.01 minutes
	total time  =          2 seconds =       0.03 minutes
Total time:
	user time   =       4.53 seconds =       0.08 minutes
	system time =       0.78 seconds =       0.01 minutes
	total time  =          4 seconds =       0.07 minutes

*** tstart() called on cqc05
*** at Thu Aug 20 20:06:02 2020

            **************************
            *                        *
            *        CCENERGY        *
            *                        *
            **************************

    Nuclear Rep. energy (wfn)     =   70.907240713378528
    SCF energy          (wfn)     = -795.101019882964351
    Reference energy    (file100) = -795.101019882965488

    Input parameters:
    -----------------
    Wave function   =     CCSD
    Reference wfn   =     UHF
    Brueckner       =     No
    Memory (Mbytes) =     250000.0
    Maxiter         =     50
    R_Convergence   =     1.0e-07
    E_Convergence   =     1.0e-06
    Restart         =     Yes
    DIIS            =     Yes
    AO Basis        =     NONE
    ABCD            =     NEW
    Cache Level     =     2
    Cache Type      =     LRU
    Print Level     =     1
    Num. of threads =     4
    # Amps to Print =     10
    Print MP2 Amps? =     No
    Analyze T2 Amps =     No
    Print Pair Ener =     No
    Local CC        =     No
    SCS-MP2         =     False
    SCSN-MP2        =     False
    SCS-CCSD        =     False

MP2 correlation energy -0.3190206097882927
                Solving CC Amplitude Equations
                ------------------------------
  Iter             Energy              RMS        T1Diag      D1Diag    New D1Diag    D2Diag
  ----     ---------------------    ---------   ----------  ----------  ----------   --------
     0        -0.319020609788294    0.000e+00    0.000000    0.000000    0.000000    0.000000
     1        -0.333402802871251    8.196e-02    0.017293    0.000000    0.000000    0.000000
     2        -0.344405051068110    2.642e-02    0.021093    0.000000    0.000000    0.000000
     3        -0.346556990283820    1.233e-02    0.025219    0.000000    0.000000    0.000000
     4        -0.346417826957166    3.057e-03    0.026378    0.000000    0.000000    0.000000
     5        -0.346403527681492    7.299e-04    0.026570    0.000000    0.000000    0.000000
     6        -0.346397660390115    2.039e-04    0.026607    0.000000    0.000000    0.000000
     7        -0.346398418337547    4.883e-05    0.026608    0.000000    0.000000    0.000000
     8        -0.346399216350895    1.454e-05    0.026609    0.000000    0.000000    0.000000
     9        -0.346399122327322    4.351e-06    0.026608    0.000000    0.000000    0.000000
    10        -0.346399121295987    1.388e-06    0.026608    0.000000    0.000000    0.000000
    11        -0.346399135066120    3.480e-07    0.026608    0.000000    0.000000    0.000000
    12        -0.346399145659424    1.139e-07    0.026608    0.000000    0.000000    0.000000
    13        -0.346399146718669    3.235e-08    0.026608    0.000000    0.000000    0.000000
    13        -0.346399146718669    3.235e-08    0.026608    0.000000    0.000000    0.000000

    Iterations converged.

    CCSD corr. energy   =   -0.346399146718669

      * MP2 total energy                      = -795.420040492753742
      * CCSD total energy                     = -795.447419029684170
*** Psi4 exiting successfully. Buy a developer a beer!
