                               Psi4 1.2a1.dev938

  ==> Input File <==

--------------------------------------------------------------------------
# Any line starting with the # character is a comment line
memory 250000 mb
molecule molecule{
0 3
S          0.0000000000        0.0000000000        0.9552576298
S          0.0000000000        0.0000000000       -0.9552576298
}

set {
  reference uhf
  basis aug-cc-pv(5+d)z
  scf_type OUT_OF_CORE
  freeze_core true
}

energy('ccsd')
--------------------------------------------------------------------------

    Molecular point group: d2h

    Geometry (in Angstrom), charge = 0, multiplicity = 3:

       Center              X                  Y                   Z               Mass
    ------------   -----------------  -----------------  -----------------  -----------------
           S          0.000000000000     0.000000000000     0.955257629800    31.972070999000
           S          0.000000000000     0.000000000000    -0.955257629800    31.972070999000

  Charge       = 0
  Multiplicity = 3
  Basis Set: AUG-CC-PV(5+D)Z
    Blend: AUG-CC-PV(5+D)Z

    Orbital Energies (a.u.)
    -----------------------

    Alpha Occupied:

       1Ag   -92.021600     1B1u  -92.021597     2Ag    -9.020211
       2B1u   -9.019880     1B3u   -6.707850     1B2u   -6.707850
       1B2g   -6.707796     1B3g   -6.707796     3Ag    -6.697040
       3B1u   -6.696120     4Ag    -1.106998     4B1u   -0.870795
       2B2u   -0.533974     2B3u   -0.533974     5Ag    -0.532736
       2B2g   -0.384296     2B3g   -0.384296

    Alpha Virtual:

       5B1u    0.039148     6Ag     0.064174     3B3u    0.070189
       3B2u    0.070189     3B2g    0.086603     3B3g    0.086603
       7Ag     0.091182     6B1u    0.116381     8Ag     0.165530
       1B1g    0.165530     7B1u    0.188091     9Ag     0.209647
       4B2u    0.219431     4B3u    0.219431     8B1u    0.232482
       1Au     0.232482     4B3g    0.240066     4B2g    0.240066
       9B1u    0.258879     5B2u    0.321675     5B3u    0.321675
      10Ag     0.360096     5B2g    0.397542     5B3g    0.397542
       6B3u    0.412824     6B2u    0.412824    11Ag     0.414106
      12Ag     0.416529     2B1g    0.416529    10B1u    0.420862
       7B2u    0.428615     7B3u    0.428615    11B1u    0.481422
       2Au     0.481422    13Ag     0.516360    14Ag     0.526487
       3B1g    0.526487     6B2g    0.529704     6B3g    0.529704
       7B3g    0.558886     7B2g    0.558886    12B1u    0.576551
       8B2u    0.636015     8B3u    0.636015    13B1u    0.674745
       3Au     0.674745    14B1u    0.698856    15Ag     0.760360
       8B3g    0.849262     8B2g    0.849262    15B1u    0.924168
       9B2u    0.990684     9B3u    0.990684    16Ag     1.015410
       4B1g    1.015410    17Ag     1.022883     9B2g    1.047249
       9B3g    1.047249    10B2u    1.071905    10B3u    1.071905
       5B1g    1.085978    18Ag     1.085978    16B1u    1.154640
       4Au     1.154640    11B2u    1.157249    11B3u    1.157249
      17B1u    1.165959     5Au     1.165959    19Ag     1.170884
       6B1g    1.170884    12B3u    1.185802    12B2u    1.185802
      18B1u    1.204815    10B2g    1.227597    10B3g    1.227597
      20Ag     1.235659    13B2u    1.271298    13B3u    1.271298
      11B3g    1.304974    11B2g    1.304974    19B1u    1.327191
       6Au     1.327191    21Ag     1.338236     7B1g    1.357239
      22Ag     1.357239    12B3g    1.390052    12B2g    1.390052
      20B1u    1.455491    13B3g    1.498559    13B2g    1.498559
      21B1u    1.596973    23Ag     1.679403    22B1u    1.760637
       7Au     1.760637    23B1u    1.762810    14B2u    1.779851
      14B3u    1.779851    14B2g    2.056445    14B3g    2.056445
      24Ag     2.178338    24B1u    2.389217     8B1g    2.414045
      25Ag     2.414045    15B2u    2.424047    15B3u    2.424047
      16B2u    2.479104    16B3u    2.479104     9B1g    2.538102
      26Ag     2.538102    27Ag     2.577347    17B2u    2.587131
      17B3u    2.587131    15B2g    2.615884    15B3g    2.615884
      18B3u    2.629199    18B2u    2.629199    28Ag     2.661528
      10B1g    2.661528    16B3g    2.674274    16B2g    2.674274
      11B1g    2.736685    29Ag     2.736685    25B1u    2.742754
       8Au     2.742754     9Au     2.748286    26B1u    2.748286
      30Ag     2.752658    17B3g    2.767169    17B2g    2.767169
      31Ag     2.782220    12B1g    2.782220    10Au     2.812274
      27B1u    2.812274    19B2u    2.838780    19B3u    2.838780
      28B1u    2.860870    20B2u    2.901369    20B3u    2.901369
      18B3g    2.901968    18B2g    2.901968    19B3g    2.983512
      19B2g    2.983512    21B2u    2.994987    21B3u    2.994987
      11Au     3.037819    29B1u    3.037819    30B1u    3.088690
      12Au     3.091197    31B1u    3.091197    32Ag     3.190482
      20B3g    3.238061    20B2g    3.238061    22B2u    3.399374
      22B3u    3.399374    13B1g    3.414376    33Ag     3.414376
      21B3g    3.534477    21B2g    3.534477    32B1u    3.580629
      34Ag     3.711521    33B1u    3.996867    13Au     4.143597
      34B1u    4.143597    22B3g    4.353970    22B2g    4.353970
      23B2u    4.479984    23B3u    4.479984    23B3g    4.574876
      23B2g    4.574876    35Ag     4.722549    24B2u    5.320930
      24B3u    5.320930    35B1u    5.346767    14B1g    5.349365
      36Ag     5.349365    24B3g    5.389198    24B2g    5.389198
      25B2u    5.473028    25B3u    5.473028    37Ag     5.542637
      14Au     5.630255    36B1u    5.630255    37B1u    5.760464
      38Ag     5.798991    25B3g    5.861873    25B2g    5.861873
      15B1g    5.880409    39Ag     5.880409    15Au     5.985483
      38B1u    5.985483    26B2u    5.986682    26B3u    5.986682
      40Ag     6.088287    16B1g    6.094380    41Ag     6.094380
      42Ag     6.101641    17B1g    6.101641    27B2u    6.110447
      27B3u    6.110447    39B1u    6.163278    16Au     6.163278
      26B3g    6.186616    26B2g    6.186616    43Ag     6.190798
      18B1g    6.190798    28B3u    6.207196    28B2u    6.207196
      29B2u    6.207783    29B3u    6.207783    30B2u    6.211997
      30B3u    6.211997    27B3g    6.273676    27B2g    6.273676
      28B2g    6.294464    28B3g    6.294464    19B1g    6.381414
      44Ag     6.381414    45Ag     6.385749    17Au     6.395525
      40B1u    6.395525    41B1u    6.482173    18Au     6.596765
      42B1u    6.596765    43B1u    6.623368    29B3g    6.670388
      29B2g    6.670388    31B2u    6.935361    31B3u    6.935361
      19Au     7.141476    44B1u    7.141476    45B1u    7.151166
      30B3g    7.162624    30B2g    7.162624    31B3g    7.767266
      31B2g    7.767266    46B1u    7.917947    46Ag     8.620312
      20B1g   16.225118    47Ag    16.225118    20Au    16.352806
      47B1u   16.352806    32B2u   16.410910    32B3u   16.410910
      48Ag    16.791293    48B1u   16.868014    32B3g   16.986781
      32B2g   16.986781    33B3u   24.754345    33B2u   24.754345
      33B3g   25.466560    33B2g   25.466560    49Ag    25.918358
      49B1u   28.403751    50Ag    63.406678    50B1u   64.053545

    Beta Occupied:

       1Ag   -92.009404     1B1u  -92.009399     2Ag    -9.008172
       2B1u   -9.007735     3Ag    -6.691729     3B1u   -6.690758
       1B2u   -6.678736     1B3u   -6.678736     1B3g   -6.678642
       1B2g   -6.678642     4Ag    -1.041342     4B1u   -0.727486
       5Ag    -0.493592     2B3u   -0.409337     2B2u   -0.409337

    Beta Virtual:

       2B2g    0.003480     2B3g    0.003480     5B1u    0.041308
       6Ag     0.065464     3B3u    0.071831     3B2u    0.071831
       7Ag     0.089844     3B2g    0.093811     3B3g    0.093811
       6B1u    0.129914     1B1g    0.171973     8Ag     0.171973
       7B1u    0.196833     9Ag     0.212848     4B2u    0.229333
       4B3u    0.229333     1Au     0.240727     8B1u    0.240727
       4B2g    0.249825     4B3g    0.249825     9B1u    0.268692
       5B3u    0.329658     5B2u    0.329658    10Ag     0.361090
       5B2g    0.416838     5B3g    0.416838    11Ag     0.422222
      10B1u    0.427182     6B2u    0.429886     6B3u    0.429886
       2B1g    0.441669    12Ag     0.441669     7B2u    0.453804
       7B3u    0.453804     2Au     0.526062    11B1u    0.526062
      13Ag     0.526781     6B2g    0.533921     6B3g    0.533921
       3B1g    0.540759    14Ag     0.540759     7B3g    0.570453
       7B2g    0.570453    12B1u    0.584695     8B3u    0.645697
       8B2u    0.645697     3Au     0.705694    13B1u    0.705694
      14B1u    0.709615    15Ag     0.780876     8B2g    0.876764
       8B3g    0.876764    15B1u    0.934360     9B3u    0.994542
       9B2u    0.994542    16Ag     1.018085     4B1g    1.018085
      17Ag     1.025713    10B2u    1.071786    10B3u    1.071786
       9B3g    1.078678     9B2g    1.078678     5B1g    1.099873
      18Ag     1.099873    16B1u    1.172055     4Au     1.172055
      11B2u    1.176163    11B3u    1.176163     5Au     1.182883
      17B1u    1.182883     6B1g    1.205483    19Ag     1.205483
      18B1u    1.214144    12B3u    1.222662    12B2u    1.222662
      20Ag     1.240382    10B2g    1.249645    10B3g    1.249645
      13B2u    1.285133    13B3u    1.285133    11B3g    1.308697
      11B2g    1.308697    21Ag     1.342077     6Au     1.349854
      19B1u    1.349854     7B1g    1.365407    22Ag     1.365407
      12B3g    1.397007    12B2g    1.397007    20B1u    1.471137
      13B2g    1.515210    13B3g    1.515210    21B1u    1.606954
      23Ag     1.706797    22B1u    1.770599     7Au     1.771656
      23B1u    1.771656    14B3u    1.790274    14B2u    1.790274
      14B3g    2.081165    14B2g    2.081165    24Ag     2.176841
      24B1u    2.409949     8B1g    2.421618    25Ag     2.421618
      15B3u    2.435257    15B2u    2.435257    16B2u    2.485791
      16B3u    2.485791    26Ag     2.540314     9B1g    2.540314
      27Ag     2.592919    17B2u    2.622010    17B3u    2.622010
      18B2u    2.638536    18B3u    2.638536    15B2g    2.653322
      15B3g    2.653322    28Ag     2.684590    10B1g    2.684590
      16B3g    2.690724    16B2g    2.690724    11B1g    2.758659
      29Ag     2.758659    25B1u    2.765693     8Au     2.765693
      30Ag     2.765785     9Au     2.770478    26B1u    2.770478
      17B2g    2.778456    17B3g    2.778456    12B1g    2.800234
      31Ag     2.800234    10Au     2.834347    27B1u    2.834347
      19B2u    2.851163    19B3u    2.851163    28B1u    2.870034
      20B2u    2.912028    20B3u    2.912028    18B3g    2.917659
      18B2g    2.917659    19B2g    2.997903    19B3g    2.997903
      21B2u    3.002777    21B3u    3.002777    11Au     3.046200
      29B1u    3.046200    30B1u    3.099399    12Au     3.101724
      31B1u    3.101724    32Ag     3.195377    20B3g    3.243696
      20B2g    3.243696    22B3u    3.421579    22B2u    3.421579
      13B1g    3.422980    33Ag     3.422980    21B3g    3.542268
      21B2g    3.542268    32B1u    3.584478    34Ag     3.716986
      33B1u    4.004625    13Au     4.152829    34B1u    4.152829
      22B3g    4.369442    22B2g    4.369442    23B3u    4.498630
      23B2u    4.498630    23B2g    4.597055    23B3g    4.597055
      35Ag     4.731758    24B2u    5.347006    24B3u    5.347006
      35B1u    5.358200    14B1g    5.365237    36Ag     5.365237
      24B3g    5.414736    24B2g    5.414736    25B2u    5.482741
      25B3u    5.482741    37Ag     5.549822    14Au     5.645018
      36B1u    5.645018    37B1u    5.777698    38Ag     5.807125
      25B2g    5.870748    25B3g    5.870748    15B1g    5.895556
      39Ag     5.895556    26B2u    5.998296    26B3u    5.998296
      15Au     6.005583    38B1u    6.005583    16B1g    6.103338
      40Ag     6.103338    41Ag     6.104817    27B3u    6.125024
      27B2u    6.125024    42Ag     6.128977    17B1g    6.128977
      39B1u    6.190363    16Au     6.190363    26B3g    6.198934
      26B2g    6.198934    43Ag     6.207619    18B1g    6.207619
      28B3u    6.218568    28B2u    6.218568    29B3u    6.223138
      29B2u    6.223138    30B3u    6.234234    30B2u    6.234234
      27B3g    6.295744    27B2g    6.295744    28B2g    6.313358
      28B3g    6.313358    19B1g    6.395275    44Ag     6.395275
      45Ag     6.396380    17Au     6.412146    40B1u    6.412146
      41B1u    6.487044    18Au     6.605769    42B1u    6.605769
      43B1u    6.631760    29B3g    6.682547    29B2g    6.682547
      31B2u    6.941386    31B3u    6.941386    19Au     7.151779
      44B1u    7.151779    45B1u    7.158533    30B3g    7.168568
      30B2g    7.168568    31B2g    7.777287    31B3g    7.777287
      46B1u    7.925731    46Ag     8.624672    20B1g   16.240811
      47Ag    16.240811    20Au    16.368591    47B1u   16.368591
      32B2u   16.419706    32B3u   16.419706    48Ag    16.797780
      48B1u   16.874595    32B3g   16.995523    32B2g   16.995523
      33B2u   24.775821    33B3u   24.775821    33B3g   25.487299
      33B2g   25.487299    49Ag    25.922361    49B1u   28.407272
      50Ag    63.414610    50B1u   64.061556

    Final Occupation by Irrep:
             Ag   B1g   B2g   B3g    Au   B1u   B2u   B3u
    DOCC [     5,    0,    1,    1,    0,    4,    2,    2 ]
    SOCC [     0,    0,    1,    1,    0,    0,    0,    0 ]

  Energy converged.

  @UHF Final Energy:  -795.10836565904833

   => Energetics <=

    Nuclear Repulsion Energy =             70.9072407133785276
    One-Electron Energy =               -1240.1633592588298143
    Two-Electron Energy =                 374.1477528864029409
    PCM Polarization Energy =               0.0000000000000000
    Total Energy =                       -795.1083656590483315

    Alert: EFP and PCM quantities not currently incorporated into SCF psivars.
  UHF NO Occupations:
  HONO-2 :    2B3u 1.9878529
  HONO-1 :    2B3g 1.0000000
  HONO-0 :    2B2g 1.0000000
  LUNO+0 :    3B3u 0.0121471
  LUNO+1 :    3B2u 0.0121471
  LUNO+2 :    5B1u 0.0039064
  LUNO+3 :    6 Ag 0.0029468

Properties will be evaluated at   0.000000,   0.000000,   0.000000 Bohr

Properties computed using the SCF density matrix

  Nuclear Dipole Moment: (a.u.)
     X:     0.0000      Y:     0.0000      Z:     0.0000

  Electronic Dipole Moment: (a.u.)
     X:     0.0000      Y:     0.0000      Z:     0.0000

  Dipole Moment: (a.u.)
     X:     0.0000      Y:     0.0000      Z:     0.0000     Total:     0.0000

  Dipole Moment: (Debye)
     X:     0.0000      Y:     0.0000      Z:     0.0000     Total:     0.0000

*** tstop() called on cqc05 at Fri Aug 21 05:43:38 2020
Module time:
	user time   =     107.40 seconds =       1.79 minutes
	system time =       3.43 seconds =       0.06 minutes
	total time  =        111 seconds =       1.85 minutes
Total time:
	user time   =     107.40 seconds =       1.79 minutes
	system time =       3.43 seconds =       0.06 minutes
	total time  =        111 seconds =       1.85 minutes

*** tstart() called on cqc05
*** at Fri Aug 21 05:43:38 2020

	Wfn Parameters:
	--------------------
	Wavefunction         = CCSD
	Number of irreps     = 8
	Number of MOs        = 272
	Number of active MOs = 262
	AO-Basis             = NONE
	Semicanonical        = false
	Reference            = UHF
	Print Level          = 1

	IRREP	# MOs	# FZDC	# DOCC	# SOCC	# VIRT	# FZVR
	-----	-----	------	------	------	------	------
	 Ag	   50	    3	    2	    0	    45	    0
	 B1g	   20	    0	    0	    0	    20	    0
	 B2g	   33	    1	    0	    1	    31	    0
	 B3g	   33	    1	    0	    1	    31	    0
	 Au	   20	    0	    0	    0	    20	    0
	 B1u	   50	    3	    1	    0	    46	    0
	 B2u	   33	    1	    1	    0	    31	    0
	 B3u	   33	    1	    1	    0	    31	    0
	Transforming integrals...
	IWL integrals will be deleted.
	(OO|OO)...
	Presorting SO-basis two-electron integrals.
	Sorting File: SO Ints (nn|nn) nbuckets = 1
	Transforming the one-electron integrals and constructing Fock matrices
	Starting AA/AB first half-transformation.
	Sorting AA/AB half-transformed integrals.
	Starting BB first half-transformation.
	Sorting BB half-transformed integrals.
	First half integral transformation complete.
	Starting AA second half-transformation.
	Starting AB second half-transformation.
	Starting BB second half-transformation.
	Two-electron integral transformation complete.
	(OO|OV)...
	Starting AA second half-transformation.
	Starting AB second half-transformation.
	Starting BB second half-transformation.
	Two-electron integral transformation complete.
	(OO|VV)...
	Starting AA second half-transformation.
	Starting AB second half-transformation.
	Starting BB second half-transformation.
	Two-electron integral transformation complete.
	(OV|OO)...
	Starting AA/AB first half-transformation.
	Sorting AA/AB half-transformed integrals.
	Starting BB first half-transformation.
	Sorting BB half-transformed integrals.
	First half integral transformation complete.
	Starting AA second half-transformation.
	Starting AB second half-transformation.
	Starting BB second half-transformation.
	Two-electron integral transformation complete.
	(OV|OV)...
	Starting AA second half-transformation.
	Starting AB second half-transformation.
	Starting BB second half-transformation.
	Two-electron integral transformation complete.
	(OV|VV)...
	Starting AA second half-transformation.
	Starting AB second half-transformation.
	Starting BB second half-transformation.
	Two-electron integral transformation complete.
	(VV|OO)...
	Starting AA/AB first half-transformation.
	Sorting AA/AB half-transformed integrals.
	Starting BB first half-transformation.
	Sorting BB half-transformed integrals.
	First half integral transformation complete.
	Starting AA second half-transformation.
	Starting AB second half-transformation.
	Starting BB second half-transformation.
	Two-electron integral transformation complete.
	(VV|OV)...
	Starting AA second half-transformation.
	Starting AB second half-transformation.
	Starting BB second half-transformation.
	Two-electron integral transformation complete.
	(VV|VV)...
	Starting AA second half-transformation.
	Starting AB second half-transformation.
	Starting BB second half-transformation.
	Two-electron integral transformation complete.
	Frozen core energy     =   -836.04537612437366

	Size of irrep 0 of <AB|CD> integrals:     18.190 (MW) /    145.522 (MB)
	Size of irrep 1 of <AB|CD> integrals:     14.003 (MW) /    112.021 (MB)
	Size of irrep 2 of <AB|CD> integrals:     16.492 (MW) /    131.934 (MB)
	Size of irrep 3 of <AB|CD> integrals:     16.492 (MW) /    131.934 (MB)
	Size of irrep 4 of <AB|CD> integrals:     14.003 (MW) /    112.021 (MB)
	Size of irrep 5 of <AB|CD> integrals:     19.290 (MW) /    154.317 (MB)
	Size of irrep 6 of <AB|CD> integrals:     16.492 (MW) /    131.934 (MB)
	Size of irrep 7 of <AB|CD> integrals:     16.492 (MW) /    131.934 (MB)
	Total:                                   131.452 (MW) /   1051.615 (MB)

	Size of irrep 0 of <ab|cd> integrals:     18.723 (MW) /    149.783 (MB)
	Size of irrep 1 of <ab|cd> integrals:     14.478 (MW) /    115.824 (MB)
	Size of irrep 2 of <ab|cd> integrals:     17.024 (MW) /    136.191 (MB)
	Size of irrep 3 of <ab|cd> integrals:     17.024 (MW) /    136.191 (MB)
	Size of irrep 4 of <ab|cd> integrals:     14.470 (MW) /    115.763 (MB)
	Size of irrep 5 of <ab|cd> integrals:     19.838 (MW) /    158.705 (MB)
	Size of irrep 6 of <ab|cd> integrals:     17.032 (MW) /    136.257 (MB)
	Size of irrep 7 of <ab|cd> integrals:     17.032 (MW) /    136.257 (MB)
	Total:                                   135.621 (MW) /   1084.972 (MB)

	Size of irrep 0 of <Ab|Cd> integrals:     78.269 (MW) /    626.155 (MB)
	Size of irrep 1 of <Ab|Cd> integrals:     56.942 (MW) /    455.537 (MB)
	Size of irrep 2 of <Ab|Cd> integrals:     67.027 (MW) /    536.216 (MB)
	Size of irrep 3 of <Ab|Cd> integrals:     67.027 (MW) /    536.216 (MB)
	Size of irrep 4 of <Ab|Cd> integrals:     56.942 (MW) /    455.537 (MB)
	Size of irrep 5 of <Ab|Cd> integrals:     78.252 (MW) /    626.014 (MB)
	Size of irrep 6 of <Ab|Cd> integrals:     67.043 (MW) /    536.347 (MB)
	Size of irrep 7 of <Ab|Cd> integrals:     67.043 (MW) /    536.347 (MB)
	Total:                                   538.546 (MW) /   4308.368 (MB)

	Size of irrep 0 of <IA|BC> integrals:      2.284 (MW) /     18.273 (MB)
	Size of irrep 1 of <IA|BC> integrals:      1.377 (MW) /     11.016 (MB)
	Size of irrep 2 of <IA|BC> integrals:      1.819 (MW) /     14.555 (MB)
	Size of irrep 3 of <IA|BC> integrals:      1.819 (MW) /     14.555 (MB)
	Size of irrep 4 of <IA|BC> integrals:      1.377 (MW) /     11.016 (MB)
	Size of irrep 5 of <IA|BC> integrals:      2.293 (MW) /     18.341 (MB)
	Size of irrep 6 of <IA|BC> integrals:      1.819 (MW) /     14.555 (MB)
	Size of irrep 7 of <IA|BC> integrals:      1.819 (MW) /     14.555 (MB)
	Total:                                    14.608 (MW) /    116.865 (MB)

	Size of irrep 0 of <ia|bc> integrals:      1.764 (MW) /     14.115 (MB)
	Size of irrep 1 of <ia|bc> integrals:      0.928 (MW) /      7.427 (MB)
	Size of irrep 2 of <ia|bc> integrals:      1.329 (MW) /     10.629 (MB)
	Size of irrep 3 of <ia|bc> integrals:      1.329 (MW) /     10.629 (MB)
	Size of irrep 4 of <ia|bc> integrals:      0.943 (MW) /      7.547 (MB)
	Size of irrep 5 of <ia|bc> integrals:      1.791 (MW) /     14.324 (MB)
	Size of irrep 6 of <ia|bc> integrals:      1.312 (MW) /     10.499 (MB)
	Size of irrep 7 of <ia|bc> integrals:      1.312 (MW) /     10.499 (MB)
	Total:                                    10.709 (MW) /     85.669 (MB)

	Size of irrep 0 of <Ia|Bc> integrals:      2.318 (MW) /     18.543 (MB)
	Size of irrep 1 of <Ia|Bc> integrals:      1.404 (MW) /     11.228 (MB)
	Size of irrep 2 of <Ia|Bc> integrals:      1.850 (MW) /     14.802 (MB)
	Size of irrep 3 of <Ia|Bc> integrals:      1.850 (MW) /     14.802 (MB)
	Size of irrep 4 of <Ia|Bc> integrals:      1.404 (MW) /     11.228 (MB)

      * MP2 total energy                      = -795.463423336150527
      * CCSD total energy                     = -795.482905701123514
*** Psi4 exiting successfully. Buy a developer a beer!
