                               Psi4 1.4a3.dev88

  ==> Input File <==

--------------------------------------------------------------------------
# Any line starting with the # character is a comment line
memory 250000 mb
molecule molecule{
1 2
F          0.0000000000        0.0000000000        0.0504971356
H          0.0000000000        0.0000000000       -0.9518075795
}

set {
  reference uhf
  basis aug-cc-pV(t+d)Z
  scf_type OUT_OF_CORE
  freeze_core true
}

energy('ccsd(t)')
--------------------------------------------------------------------------

    Molecular point group: c2v

    Geometry (in Angstrom), charge = 1, multiplicity = 2:

       Center              X                  Y                   Z               Mass
    ------------   -----------------  -----------------  -----------------  -----------------
         F            0.000000000000     0.000000000000     0.050491665493    18.998403162730
         H            0.000000000000     0.000000000000    -0.951813049607     1.007825032230

  Charge       = 1
  Multiplicity = 2
  Basis Set: AUG-CC-PV(T+D)Z
    Blend: AUG-CC-PV(T+D)Z

    Orbital Energies [Eh]
    ---------------------

    Alpha Occupied:

       1A1   -26.967394     2A1    -2.230089     1B2    -1.365597
       3A1    -1.330673     1B1    -1.249085

    Alpha Virtual:

       4A1    -0.226457     5A1    -0.090657     2B2    -0.062679
       2B1    -0.052504     6A1    -0.036788     3B2     0.040724
       3B1     0.045427     7A1     0.048008     8A1     0.132007
       9A1     0.355413     1A2     0.406512    10A1     0.407055
       4B2     0.532421     4B1     0.543092    11A1     0.640363
       5B2     0.652629     5B1     0.671439     6B2     0.680148
      12A1     0.714469     6B1     0.716315     2A2     0.720901
      13A1     0.732738    14A1     0.798318     7B2     1.273123
       7B1     1.287979    15A1     1.459883    16A1     1.876349
       3A2     2.276909    17A1     2.277101     8B2     2.330629
       8B1     2.379790     9B2     2.447711     9B1     2.447722
      18A1     2.467774    19A1     2.635558     4A2     2.644649
      20A1     2.662034    10B2     3.101856    10B1     3.132722
      21A1     3.500553     5A2     3.626319    22A1     3.627091
      11B2     3.827459    11B1     3.834577    12B2     4.181513
      12B1     4.242224    23A1     4.267015    24A1     4.955138
      13B2     5.195714    13B1     5.251200    25A1     6.988623
      14B2     8.208862    14B1     8.209014    26A1     8.318119
       6A2     8.319384    15B2     8.568605    15B1     8.634409
      27A1     8.684367     7A2     8.687456    28A1     8.796862
      16B2     8.881662    16B1     8.959994    29A1     9.176754
      30A1    13.050781

    Beta Occupied:

       1A1   -26.915242     2A1    -2.034969     3A1    -1.277701
       1B1    -1.194662

    Beta Virtual:

       1B2    -0.415281     4A1    -0.217966     5A1    -0.088265
       2B1    -0.050569     6A1    -0.033871     2B2    -0.027717
       3B2     0.042640     3B1     0.044897     7A1     0.051369
       8A1     0.136625     9A1     0.357432     1A2     0.417432
      10A1     0.417654     4B1     0.541520     4B2     0.543624
      11A1     0.642724     5B1     0.672362     5B2     0.674439
       6B1     0.727647    12A1     0.730244     2A2     0.731435
      13A1     0.739297     6B2     0.799128    14A1     0.810647
       7B2     1.280789     7B1     1.287296    15A1     1.473026
      16A1     1.896012     3A2     2.348371    17A1     2.348655
       8B1     2.388268     8B2     2.410688     9B1     2.469679
       9B2     2.469681    18A1     2.485022    19A1     2.669878
       4A2     2.672091    20A1     2.680832    10B2     3.121733
      10B1     3.133616    21A1     3.508822     5A2     3.629622
      22A1     3.629814    11B2     3.826235    11B1     3.831443
      12B1     4.257354    23A1     4.280368    12B2     4.288674
      24A1     4.965521    13B1     5.265507    13B2     5.291086
      25A1     7.013560    14B2     8.273161    14B1     8.273168
      26A1     8.367315     6A2     8.367474    15B2     8.626619
      15B1     8.646506     7A2     8.799172    27A1     8.799327
      28A1     8.821922    16B1     8.981461    16B2     8.989275
      29A1     9.218815    30A1    13.095705

    Final Occupation by Irrep:
             A1    A2    B1    B2
    DOCC [     3,    0,    1,    0 ]
    SOCC [     0,    0,    0,    1 ]

  @UHF Final Energy:   -99.53736282079070

   => Energetics <=

    Nuclear Repulsion Energy =              4.7516437110193950
    One-Electron Energy =                -144.0126007511240118
    Two-Electron Energy =                  39.7235942193139095
    Total Energy =                        -99.5373628207907046

  UHF NO Occupations:
  HONO-2 :    2 A1 1.9993623
  HONO-1 :    3 A1 1.9983320
  HONO-0 :    1 B2 1.0000000
  LUNO+0 :    4 A1 0.0016680
  LUNO+1 :    5 A1 0.0006377
  LUNO+2 :    2 B1 0.0002418
  LUNO+3 :    6 A1 0.0000010

Computation Completed

Properties will be evaluated at   0.000000,   0.000000,   0.000000 [a0]

Properties computed using the SCF density matrix

  Nuclear Dipole Moment: [e a0]
     X:     0.0000      Y:     0.0000      Z:    -0.9399

  Electronic Dipole Moment: [e a0]
     X:     0.0000      Y:     0.0000      Z:    -0.1175

  Dipole Moment: [e a0]
     X:     0.0000      Y:     0.0000      Z:    -1.0574     Total:     1.0574

  Dipole Moment: [D]
     X:     0.0000      Y:     0.0000      Z:    -2.6877     Total:     2.6877

*** tstop() called on n412-040.vsc4.prov at Tue Jan 26 18:19:10 2021
Module time:
	user time   =      25.87 seconds =       0.43 minutes
	system time =       1.03 seconds =       0.02 minutes
	total time  =          1 seconds =       0.02 minutes
Total time:
	user time   =      25.87 seconds =       0.43 minutes
	system time =       1.03 seconds =       0.02 minutes
	total time  =          1 seconds =       0.02 minutes

*** tstart() called on n412-040.vsc4.prov
*** at Tue Jan 26 18:19:10 2021

	Wfn Parameters:
	--------------------
	Wavefunction         = CCSD_T
	Number of irreps     = 4
	Number of MOs        = 69
	Number of active MOs = 68
	AO-Basis             = NONE
	Semicanonical        = false
	Reference            = UHF
	Print Level          = 1

	IRREP	# MOs	# FZDC	# DOCC	# SOCC	# VIRT	# FZVR
	-----	-----	------	------	------	------	------
	 A1	   30	    1	    2	    0	    27	    0
	 A2	   7	    0	    0	    0	    7	    0
	 B1	   16	    0	    1	    0	    15	    0
	 B2	   16	    0	    0	    1	    15	    0
	Transforming integrals...
	IWL integrals will be deleted.
	(OO|OO)...
	Presorting SO-basis two-electron integrals.
	Sorting File: SO Ints (nn|nn) nbuckets = 1
	Constructing frozen core operators
	Starting AA/AB first half-transformation.
	Sorting AA/AB half-transformed integrals.
	Starting BB first half-transformation.
	Sorting BB half-transformed integrals.
	First half integral transformation complete.
	Starting AA second half-transformation.
	Starting AB second half-transformation.
	Starting BB second half-transformation.
	Two-electron integral transformation complete.
	(OO|OV)...
	Starting AA second half-transformation.
	Starting AB second half-transformation.
	Starting BB second half-transformation.
	Two-electron integral transformation complete.
	(OO|VV)...
	Starting AA second half-transformation.
	Starting AB second half-transformation.
	Starting BB second half-transformation.
	Two-electron integral transformation complete.
	(OV|OO)...
	Starting AA/AB first half-transformation.
	Sorting AA/AB half-transformed integrals.
	Starting BB first half-transformation.
	Sorting BB half-transformed integrals.
	First half integral transformation complete.
	Starting AA second half-transformation.
	Starting AB second half-transformation.
	Starting BB second half-transformation.
	Two-electron integral transformation complete.
	(OV|OV)...
	Starting AA second half-transformation.
	Starting AB second half-transformation.
	Starting BB second half-transformation.
	Two-electron integral transformation complete.
	(OV|VV)...
	Starting AA second half-transformation.
	Starting AB second half-transformation.
	Starting BB second half-transformation.
	Two-electron integral transformation complete.
	(VV|OO)...
	Starting AA/AB first half-transformation.
	Sorting AA/AB half-transformed integrals.
	Starting BB first half-transformation.
	Sorting BB half-transformed integrals.
	First half integral transformation complete.
	Starting AA second half-transformation.
	Starting AB second half-transformation.
	Starting BB second half-transformation.
	Two-electron integral transformation complete.
	(VV|OV)...
	Starting AA second half-transformation.
	Starting AB second half-transformation.
	Starting BB second half-transformation.
	Two-electron integral transformation complete.
	(VV|VV)...
	Starting AA second half-transformation.
	Starting AB second half-transformation.
	Starting BB second half-transformation.
	Two-electron integral transformation complete.
	Frozen core energy     =    -76.53398279234985

	Size of irrep 0 of <AB|CD> integrals:      0.339 (MW) /      2.710 (MB)
	Size of irrep 1 of <AB|CD> integrals:      0.171 (MW) /      1.371 (MB)
	Size of irrep 2 of <AB|CD> integrals:      0.260 (MW) /      2.081 (MB)
	Size of irrep 3 of <AB|CD> integrals:      0.260 (MW) /      2.081 (MB)
	Total:                                     1.030 (MW) /      8.243 (MB)

	Size of irrep 0 of <ab|cd> integrals:      0.356 (MW) /      2.851 (MB)
	Size of irrep 1 of <ab|cd> integrals:      0.184 (MW) /      1.472 (MB)
	Size of irrep 2 of <ab|cd> integrals:      0.267 (MW) /      2.138 (MB)
	Size of irrep 3 of <ab|cd> integrals:      0.288 (MW) /      2.307 (MB)
	Total:                                     1.096 (MW) /      8.769 (MB)

	Size of irrep 0 of <Ab|Cd> integrals:      1.545 (MW) /     12.360 (MB)
	Size of irrep 1 of <Ab|Cd> integrals:      0.711 (MW) /      5.685 (MB)
	Size of irrep 2 of <Ab|Cd> integrals:      1.055 (MW) /      8.438 (MB)
	Size of irrep 3 of <Ab|Cd> integrals:      1.096 (MW) /      8.770 (MB)
	Total:                                     4.407 (MW) /     35.253 (MB)

	Size of irrep 0 of <IA|BC> integrals:      0.103 (MW) /      0.825 (MB)
	Size of irrep 1 of <IA|BC> integrals:      0.036 (MW) /      0.291 (MB)
	Size of irrep 2 of <IA|BC> integrals:      0.065 (MW) /      0.522 (MB)
	Size of irrep 3 of <IA|BC> integrals:      0.065 (MW) /      0.522 (MB)
	Total:                                     0.270 (MW) /      2.161 (MB)

	Size of irrep 0 of <ia|bc> integrals:      0.087 (MW) /      0.695 (MB)
	Size of irrep 1 of <ia|bc> integrals:      0.026 (MW) /      0.206 (MB)
	Size of irrep 2 of <ia|bc> integrals:      0.059 (MW) /      0.472 (MB)
	Size of irrep 3 of <ia|bc> integrals:      0.042 (MW) /      0.335 (MB)
	Total:                                     0.213 (MW) /      1.707 (MB)

	Size of irrep 0 of <Ia|Bc> integrals:      0.106 (MW) /      0.845 (MB)
	Size of irrep 1 of <Ia|Bc> integrals:      0.038 (MW) /      0.303 (MB)
	Size of irrep 2 of <Ia|Bc> integrals:      0.066 (MW) /      0.526 (MB)
	Size of irrep 3 of <Ia|Bc> integrals:      0.069 (MW) /      0.553 (MB)
	Total:                                     0.278 (MW) /      2.227 (MB)

	Size of irrep 0 of <iA|bC> integrals:      0.086 (MW) /      0.686 (MB)
	Size of irrep 1 of <iA|bC> integrals:      0.024 (MW) /      0.196 (MB)
	Size of irrep 2 of <iA|bC> integrals:      0.059 (MW) /      0.468 (MB)
	Size of irrep 3 of <iA|bC> integrals:      0.039 (MW) /      0.310 (MB)
	Total:                                     0.207 (MW) /      1.660 (MB)

	Size of irrep 0 of tIjAb amplitudes:       0.006 (MW) /      0.050 (MB)
	Size of irrep 1 of tIjAb amplitudes:       0.001 (MW) /      0.007 (MB)
	Size of irrep 2 of tIjAb amplitudes:       0.004 (MW) /      0.033 (MB)
	Size of irrep 3 of tIjAb amplitudes:       0.002 (MW) /      0.017 (MB)
	Total:                                     0.013 (MW) /      0.106 (MB)

	Nuclear Rep. energy          =      4.75164371101939
	SCF energy                   =    -99.53736282079070
	One-electron energy          =    -44.82727165808776
	Two-electron (AA) energy     =      4.53228527879205
	Two-electron (BB) energy     =      2.12081452126703
	Two-electron (AB) energy     =     10.41914811856829
	Two-electron energy          =     17.07224791862737
	Reference energy             =    -99.53736282079085

*** tstop() called on n412-040.vsc4.prov at Tue Jan 26 18:19:15 2021
Module time:
	user time   =       0.72 seconds =       0.01 minutes
	system time =       0.55 seconds =       0.01 minutes
	total time  =          5 seconds =       0.08 minutes
Total time:
	user time   =      26.59 seconds =       0.44 minutes
	system time =       1.58 seconds =       0.03 minutes
	total time  =          6 seconds =       0.10 minutes
            **************************
            *                        *
            *        CCENERGY        *
            *                        *
            **************************

    Nuclear Rep. energy (wfn)     =    4.751643711019395
    SCF energy          (wfn)     =  -99.537362820790705
    Reference energy    (file100) =  -99.537362820790847

    Input parameters:
    -----------------
    Wave function   =     CCSD_T
    Reference wfn   =     UHF
    Brueckner       =     No
    Memory (Mbytes) =     250000.0
    Maxiter         =     50
    R_Convergence   =     1.0e-07
    E_Convergence   =     1.0e-06
    Restart         =     Yes
    DIIS            =     Yes
    AO Basis        =     NONE
    ABCD            =     NEW
    Cache Level     =     2
    Cache Type      =     LRU
    Print Level     =     1
    Num. of threads =     48
    # Amps to Print =     10
    Print MP2 Amps? =     No
    Analyze T2 Amps =     No
    Print Pair Ener =     No
    Local CC        =     No
    SCS-MP2         =     False
    SCSN-MP2        =     False
    SCS-CCSD        =     False

MP2 correlation energy -0.2071792717543439
                Solving CC Amplitude Equations
                ------------------------------
  Iter             Energy              RMS        T1Diag      D1Diag    New D1Diag    D2Diag
  ----     ---------------------    ---------   ----------  ----------  ----------   --------
     0        -0.207179271754344    0.000e+00    0.000000    0.000000    0.000000    0.000000
     1        -0.215897271236590    2.969e-02    0.007968    0.000000    0.000000    0.000000
     2        -0.219347894547213    9.272e-03    0.009084    0.000000    0.000000    0.000000
     3        -0.220001893074893    4.191e-03    0.010244    0.000000    0.000000    0.000000
     4        -0.219946056673009    1.573e-03    0.010403    0.000000    0.000000    0.000000
     5        -0.219972672155964    6.305e-04    0.010412    0.000000    0.000000    0.000000
     6        -0.219984948471895    1.969e-04    0.010398    0.000000    0.000000    0.000000
     7        -0.219983452241747    6.179e-05    0.010393    0.000000    0.000000    0.000000
     8        -0.219983384558591    2.099e-05    0.010394    0.000000    0.000000    0.000000
     9        -0.219983207798368    6.677e-06    0.010395    0.000000    0.000000    0.000000
    10        -0.219983265916457    2.166e-06    0.010395    0.000000    0.000000    0.000000
    11        -0.219983300900848    6.230e-07    0.010395    0.000000    0.000000    0.000000
    12        -0.219983316076490    1.766e-07    0.010395    0.000000    0.000000    0.000000
    13        -0.219983318036640    4.756e-08    0.010395    0.000000    0.000000    0.000000

    Iterations converged.

    Largest TIA Amplitudes:
              1   0         0.0105578075
              3  49        -0.0077432003
              2  34        -0.0077368081
              1   1         0.0066450756
              1   4        -0.0055439685
              2  38        -0.0045989171
              3  52        -0.0040094264
              0   0        -0.0038579784
              3  53        -0.0035143665
              1   5         0.0034840115

    Largest Tia Amplitudes:
              2  34        -0.0069133748
              1   0         0.0061284095
              1   1         0.0041898423
              0  13        -0.0038470182
              1  19        -0.0037270033
              2  38        -0.0029107484
              1   4        -0.0027780601
              0  11         0.0026643665
              0   6         0.0026594235
              1   5         0.0025941630

    Largest TIJAB Amplitudes:
      3   2  53  38        -0.0112750501
      3   2  29  13         0.0109569957
      2   1  38  10         0.0094741447
      3   1  53  10         0.0081022161
      2   1  38   0         0.0077694200
      2   1  40  16         0.0074092591
      3   2  52  38        -0.0073478865
      2   1  38   4        -0.0073433093
      3   1  52   0         0.0070136368
      3   2  49  38        -0.0069662996

    Largest Tijab Amplitudes:
      2   1  38  10         0.0097888988
      2   0  49  29         0.0091494456
      1   0  56  49        -0.0088853465
      2   1  38   0         0.0083075683
      2   1  38   4        -0.0080760397
      2   0  49  27         0.0070234564
      2   1  38   1         0.0068815511
      2   1  34   0         0.0065374525
      1   0  53  49        -0.0064149180
      1   0  52  49        -0.0062964454

    Largest TIjAb Amplitudes:
      2   2  38  38        -0.0241397504
      1   1   0   0        -0.0233455863
      3   0  13  49        -0.0196543415
      2   0  29  49        -0.0194076622
      1   0  55  49        -0.0182909364
      1   1   0   4         0.0180657486
      1   1   4   0         0.0170469450
      1   1   0   1        -0.0154863582
      1   1   4   4        -0.0149258937
      3   2  53  38        -0.0147708851

    SCF energy       (wfn)                    =  -99.537362820790705
    Reference energy (file100)                =  -99.537362820790847

    Opposite-spin MP2 correlation energy      =   -0.158456454833850
    Same-spin MP2 correlation energy          =   -0.048722816920494
    Singles MP2 correlation energy            =   -0.000000000000000
    MP2 correlation energy                    =   -0.207179271754344
      * MP2 total energy                      =  -99.744542092545188

    Opposite-spin CCSD correlation energy     =   -0.173212184186695

      * CCSD total energy                     =  -99.757346138827486
      * CCSD(T) total energy                     =  -99.761722833957265
*** Psi4 exiting successfully. Buy a developer a beer!
