                               Psi4 1.4a3.dev88

  ==> Input File <==

--------------------------------------------------------------------------
# Any line starting with the # character is a comment line
memory 250000 mb
molecule molecule{
1 2
F          0.0000000000        0.0000000000        0.0504971356
H          0.0000000000        0.0000000000       -0.9518075795
}

set {
  reference uhf
  basis aug-cc-pV(6+d)Z
  scf_type OUT_OF_CORE
  freeze_core true
}

energy('ccsd(t)')
--------------------------------------------------------------------------

    Molecular point group: c2v

    Geometry (in Angstrom), charge = 1, multiplicity = 2:

       Center              X                  Y                   Z               Mass
    ------------   -----------------  -----------------  -----------------  -----------------
         F            0.000000000000     0.000000000000     0.050491665493    18.998403162730
         H            0.000000000000     0.000000000000    -0.951813049607     1.007825032230

  Charge       = 1
  Multiplicity = 2
  Basis Set: AUG-CC-PV(6+D)Z
    Blend: AUG-CC-PV(6+D)Z

    Orbital Energies [Eh]
    ---------------------

    Alpha Occupied:

       1A1   -26.963149     2A1    -2.228296     1B2    -1.365964
       3A1    -1.330307     1B1    -1.249219

    Alpha Virtual:

       4A1    -0.226464     5A1    -0.102890     2B2    -0.094883
       2B1    -0.088812     6A1    -0.074449     3B2    -0.015662
       7A1    -0.013800     3B1    -0.013229     8A1     0.040747
       9A1     0.086397     1A2     0.120760    10A1     0.120808
       4B2     0.149812     4B1     0.161052    11A1     0.211523
       5B2     0.213431     5B1     0.220009    12A1     0.268611
       6B2     0.270108     6B1     0.277038     2A2     0.283400
      13A1     0.284058    14A1     0.342465    15A1     0.464283
       7B2     0.572511     7B1     0.581785    16A1     0.686728
       8B2     0.689675     8B1     0.689679    17A1     0.783102
       9B2     0.787471     3A2     0.788087    18A1     0.788407
       9B1     0.791868     4A2     0.872041    19A1     0.872087
      20A1     0.914292    10B2     0.932493    10B1     0.939169
      11B2     0.942542    11B1     0.953950    21A1     1.014273
      12B2     1.019456     5A2     1.020271    22A1     1.030471
      12B1     1.048799    23A1     1.171318    13B2     1.266770
      13B1     1.284289    24A1     1.514796    25A1     1.585820
      14B2     1.636350     6A2     1.640109    26A1     1.641295
      14B1     1.645811     7A2     1.788329    27A1     1.788329
      15B2     1.989451    15B1     1.989495    16B2     2.007518
      16B1     2.013814    28A1     2.044066     8A2     2.044242
      29A1     2.056516    30A1     2.140685    17B2     2.233533
      17B1     2.249257    31A1     2.359105     9A2     2.420207
      32A1     2.420207    18B2     2.489392    18B1     2.489402
      33A1     2.623910    10A2     2.624580    19B2     2.709405
      19B1     2.709556    34A1     2.713863    11A2     2.715219
      20B2     2.754730    20B1     2.777088    35A1     2.825092
      36A1     2.861021    21B2     2.873243    21B1     2.905284
      22B2     3.094051    37A1     3.117674    12A2     3.118006
      22B1     3.153605    38A1     3.216323    23B2     3.613186
      23B1     3.613293    24B2     3.656817    24B1     3.676271
      39A1     3.758387    13A2     3.759302    40A1     3.779607
      41A1     3.862592    25B2     3.952033    25B1     3.952033
      26B2     4.220912    26B1     4.231317    42A1     4.245653
      14A2     4.255750    43A1     4.255750    44A1     4.620208
      27B2     4.623235    15A2     4.624085    45A1     4.624392
      27B1     4.636914    28B2     4.681007    28B1     4.681009
      16A2     4.789187    46A1     4.789607    29B2     4.929070
      29B1     4.944578    47A1     4.957999    30B2     5.495560
      30B1     5.495560    31B2     5.637016    31B1     5.681969
      17A2     5.943098    48A1     5.943098    32B2     6.014247
      32B1     6.014257    49A1     6.101985    50A1     6.399461
      18A2     6.399480    51A1     6.446784    19A2     6.449817
      33B2     6.462170    33B1     6.490977    34B2     6.555111
      34B1     6.555674    52A1     6.562001    53A1     6.605216
      20A2     6.606929    54A1     6.792733    35B2     6.898031
      35B1     6.898864    36B2     6.944507    36B1     6.986825
      55A1     7.061367    21A2     7.134217    56A1     7.142118
      22A2     7.230936    57A1     7.230940    37B2     7.719277
      37B1     7.757675    58A1     8.060474    23A2     8.062263
      59A1     8.139926    38B2     8.325399    60A1     8.391295
      38B1     8.391652    39B2     8.798075    39B1     8.798081
      24A2     8.826940    61A1     8.826968    40B2     9.077687
      40B1     9.095699    62A1     9.257572    41B2     9.408793
      41B1     9.408794    63A1     9.728821    25A2     9.730844
      64A1     9.731690    65A1    10.011128    42B2    10.222668
      42B1    10.269586    43B2    10.776821    43B1    10.797222
      26A2    10.841487    66A1    10.841908    44B2    11.137849
      44B1    11.177678    67A1    11.288315    27A2    11.591934
      68A1    11.591934    45B2    11.686200    45B1    11.686200
      28A2    12.077585    69A1    12.077585    70A1    12.321365
      46B2    13.170646    46B1    13.170650    47B2    13.507098
      47B1    13.507098    71A1    13.854819    29A2    13.854911
      72A1    13.876682    30A2    13.877550    48B2    13.911729
      48B1    13.940146    49B2    13.962325    49B1    13.971437
      73A1    14.192010    50B2    14.295850    50B1    14.324600
      74A1    14.434429    31A2    14.435290    75A1    14.592998
      51B2    14.786074    51B1    14.838137    76A1    15.888247
      32A2    15.888249    77A1    16.124745    52B2    16.172046
      52B1    16.172055    53B2    16.271835    53B1    16.274116
      33A2    16.332734    78A1    16.333854    54B2    16.362885
      54B1    16.416360    55B2    16.985592    55B1    16.985592
      79A1    17.262027    34A2    17.274284    80A1    17.366539
      35A2    17.592251    81A1    17.592251    56B2    18.379386
      56B1    18.443956    82A1    18.456200    36A2    18.506953
      83A1    18.512919    84A1    19.461859    57B2    19.512306
      57B1    19.546292    58B2    19.550288    58B1    19.556182
      37A2    19.777653    85A1    19.777653    59B2    20.573662
      59B1    20.573662    86A1    20.852701    38A2    20.876831
      87A1    20.877277    88A1    21.308469    39A2    21.308493
      60B2    21.445577    60B1    21.458066    61B2    22.027354
      61B1    22.061507    89A1    22.280126    40A2    22.783602
      90A1    22.783684    62B2    23.426565    62B1    23.426565
      91A1    24.390870    63B2    25.541913    63B1    25.558460
      92A1    25.579856    41A2    25.579900    93A1    25.918853
      94A1    26.189384    64B2    26.645017    64B1    26.677676
      65B2    28.483016    65B1    28.554084    95A1    28.715113
      42A2    28.728191    96A1    28.728191    66B2    28.784150
      66B1    28.784150    97A1    29.048198    43A2    29.048198
      67B2    29.495912    67B1    29.495927    98A1    30.139938
      44A2    30.142856    99A1    30.552491    68B2    30.857515
      68B1    30.909610   100A1    32.582592    69B2    34.392467
      69B1    34.392467   101A1    34.586595    45A2    34.586599
      70B2    34.775147    70B1    34.775526    71B2    34.991834
      71B1    35.035435   102A1    35.102233    46A2    35.264205
     103A1    35.276696    72B2    36.066158    72B1    36.101122
      73B2    38.649482    73B1    38.649487   104A1    39.224566
      47A2    39.649080   105A1    39.650254    48A2    39.652171
     106A1    39.652294    74B2    39.880616    74B1    39.880640
     107A1    40.418306    49A2    40.420496    75B2    40.841793
      75B1    40.915165   108A1    41.397724    76B2    42.368365
      76B1    42.438598   109A1    42.709923    50A2    43.682681
     110A1    43.683001    77B2    45.541452    77B1    45.603987
     111A1    48.482315   112A1   131.071907

    Beta Occupied:

       1A1   -26.911235     2A1    -2.033022     3A1    -1.277391
       1B1    -1.194959

    Beta Virtual:

       1B2    -0.414246     4A1    -0.217976     5A1    -0.101158
       2B1    -0.087834     2B2    -0.076365     6A1    -0.072612
       3B2    -0.014979     3B1    -0.013433     7A1    -0.013238
       8A1     0.043593     9A1     0.089322     1A2     0.122920
      10A1     0.123005     4B1     0.163225     4B2     0.181712
      11A1     0.213074     5B1     0.220710     5B2     0.229547
      12A1     0.271943     6B2     0.274809     6B1     0.276597
       2A2     0.286108    13A1     0.286201    14A1     0.346272
      15A1     0.466683     7B1     0.581592     7B2     0.587210
       8B2     0.690920     8B1     0.690921    16A1     0.694342
      17A1     0.784996     3A2     0.788268    18A1     0.788891
       9B2     0.790933     9B1     0.792046     4A2     0.884278
      19A1     0.884531    20A1     0.921344    10B1     0.940937
      10B2     0.941062    11B1     0.955428    11B2     0.957032
      21A1     1.029532     5A2     1.037181    22A1     1.037417
      12B1     1.054548    12B2     1.085490    23A1     1.176488
      13B1     1.285565    13B2     1.296742    24A1     1.521122
      25A1     1.587361    14B2     1.639321    14B1     1.645356
       6A2     1.649362    26A1     1.649787     7A2     1.789157
      27A1     1.789157    15B2     1.990491    15B1     1.990495
      16B2     2.011493    16B1     2.013808    28A1     2.044022
       8A2     2.044154    29A1     2.061111    30A1     2.151141
      17B2     2.242981    17B1     2.249332    31A1     2.375118
       9A2     2.423231    32A1     2.423232    18B1     2.493433
      18B2     2.493435    10A2     2.644290    33A1     2.644502
      19B2     2.724010    19B1     2.724045    11A2     2.738152
      34A1     2.738227    20B2     2.769207    20B1     2.777781
      35A1     2.828023    36A1     2.870410    21B1     2.911362
      21B2     2.919197    12A2     3.152069    37A1     3.152143
      22B1     3.167829    22B2     3.193453    38A1     3.236488
      23B1     3.616225    23B2     3.616238    24B2     3.676084
      24B1     3.677868    39A1     3.765224    13A2     3.766128
      40A1     3.785600    41A1     3.869885    25B1     3.952625
      25B2     3.952625    26B2     4.223855    26B1     4.230432
      42A1     4.252434    14A2     4.256838    43A1     4.256838
      44A1     4.625196    45A1     4.627489    15A2     4.627503
      27B2     4.629529    27B1     4.637556    28B2     4.681236
      28B1     4.681236    16A2     4.794478    46A1     4.794625
      29B2     4.933875    29B1     4.944007    47A1     4.966558
      30B1     5.501587    30B2     5.501587    31B2     5.691647
      31B1     5.691686    48A1     5.947991    17A2     5.947991
      32B2     6.022185    32B1     6.022186    49A1     6.112637
      50A1     6.416240    18A2     6.416248    51A1     6.457120
      19A2     6.458799    33B2     6.472430    33B1     6.492530
      34B2     6.564758    34B1     6.564969    52A1     6.566070
      53A1     6.626939    20A2     6.627161    54A1     6.804459
      35B2     6.941410    35B1     6.941485    36B2     6.973827
      36B1     6.991383    55A1     7.091994    21A2     7.197316
      56A1     7.197558    22A2     7.233396    57A1     7.233398
      37B2     7.739384    37B1     7.761416    58A1     8.086992
      23A2     8.088964    59A1     8.158406    38B1     8.406777
      38B2     8.408694    60A1     8.409357    39B2     8.802279
      39B1     8.802281    61A1     8.827269    24A2     8.827270
      40B2     9.088328    40B1     9.097353    62A1     9.269193
      41B2     9.409021    41B1     9.409021    63A1     9.734019
      25A2     9.734255    64A1     9.739402    65A1    10.016285
      42B2    10.265081    42B1    10.277417    43B2    10.787216
      43B1    10.798068    26A2    10.851636    66A1    10.851760
      44B2    11.165580    44B1    11.183111    67A1    11.300047
      27A2    11.601956    68A1    11.601956    45B2    11.694657
      45B1    11.694657    28A2    12.085027    69A1    12.085027
      70A1    12.334087    46B2    13.178420    46B1    13.178422
      47B2    13.526971    47B1    13.526971    71A1    13.870361
      29A2    13.870463    72A1    13.883946    30A2    13.884618
      48B2    13.926054    48B1    13.949303    49B2    13.970913
      49B1    13.975110    73A1    14.197795    50B2    14.305948
      50B1    14.325817    74A1    14.447625    31A2    14.448200
      75A1    14.605157    51B2    14.810604    51B1    14.843704
      76A1    15.926639    32A2    15.926639    77A1    16.139963
      52B2    16.227999    52B1    16.228002    53B2    16.303921
      53B1    16.304837    33A2    16.358700    78A1    16.359250
      54B2    16.384635    54B1    16.420643    55B1    16.985325
      55B2    16.985325    79A1    17.319080    34A2    17.324266
      80A1    17.376576    35A2    17.592974    81A1    17.592974
      56B2    18.434744    56B1    18.457051    82A1    18.481474
      36A2    18.552143    83A1    18.552472    84A1    19.478849
      57B2    19.533872    57B1    19.550526    58B2    19.552349
      58B1    19.559302    37A2    19.777029    85A1    19.777029
      59B2    20.573656    59B1    20.573656    86A1    20.854328
      38A2    20.879467    87A1    20.879890    88A1    21.308709
      39A2    21.308727    60B2    21.449568    60B1    21.458233
      61B2    22.045957    61B1    22.065441    89A1    22.282122
      40A2    22.783915    90A1    22.783962    62B2    23.425757
      62B1    23.425757    91A1    24.396969    63B2    25.547596
      63B1    25.559053    92A1    25.581764    41A2    25.581792
      93A1    25.933727    94A1    26.193471    64B2    26.661359
      64B1    26.680782    65B2    28.544194    65B1    28.567594
      95A1    28.731394    42A2    28.750269    96A1    28.750269
      66B2    28.803035    66B1    28.803035    97A1    29.064175
      43A2    29.064175    67B2    29.509359    67B1    29.509364
      98A1    30.152246    44A2    30.154132    99A1    30.560155
      68B2    30.872638    68B1    30.913406   100A1    32.599565
      69B2    34.425707    69B1    34.425707   101A1    34.614160
      45A2    34.614161    70B2    34.798410    70B1    34.798585
      71B2    35.007186    71B1    35.038809   102A1    35.122098
      46A2    35.282551   103A1    35.289515    72B2    36.077685
      72B1    36.104115    73B2    38.696753    73B1    38.696754
     104A1    39.234399    47A2    39.683205   105A1    39.683610
      48A2    39.693566   106A1    39.693567    74B2    39.913695
      74B1    39.913703   107A1    40.446005    49A2    40.447033
      75B2    40.881065    75B1    40.926744   108A1    41.418149
      76B2    42.401401    76B1    42.447961   109A1    42.727304
      50A2    43.725414   110A1    43.725509    77B2    45.580273
      77B1    45.614185   111A1    48.496963   112A1   131.084735

    Final Occupation by Irrep:
             A1    A2    B1    B2
    DOCC [     3,    0,    1,    0 ]
    SOCC [     0,    0,    0,    1 ]

  @UHF Final Energy:   -99.54753125102290

   => Energetics <=

    Nuclear Repulsion Energy =              4.7516437110193950
    One-Electron Energy =                -144.0448081932522086
    Two-Electron Energy =                  39.7456332312099079
    Total Energy =                        -99.5475312510229031

  UHF NO Occupations:
  HONO-2 :    2 A1 1.9993587
  HONO-1 :    3 A1 1.9983164
  HONO-0 :    1 B2 1.0000000
  LUNO+0 :    4 A1 0.0016836
  LUNO+1 :    5 A1 0.0006413
  LUNO+2 :    2 B1 0.0002428
  LUNO+3 :    6 A1 0.0000013

Computation Completed

Properties will be evaluated at   0.000000,   0.000000,   0.000000 [a0]

Properties computed using the SCF density matrix

  Nuclear Dipole Moment: [e a0]
     X:     0.0000      Y:     0.0000      Z:    -0.9399

  Electronic Dipole Moment: [e a0]
     X:     0.0000      Y:     0.0000      Z:    -0.1171

  Dipole Moment: [e a0]
     X:     0.0000      Y:     0.0000      Z:    -1.0570     Total:     1.0570

  Dipole Moment: [D]
     X:     0.0000      Y:     0.0000      Z:    -2.6867     Total:     2.6867

*** tstop() called on n412-047.vsc4.prov at Sat Jan 23 00:35:25 2021
Module time:
	user time   =     436.99 seconds =       7.28 minutes
	system time =      22.27 seconds =       0.37 minutes
	total time  =        418 seconds =       6.97 minutes
Total time:
	user time   =     436.99 seconds =       7.28 minutes
	system time =      22.27 seconds =       0.37 minutes
	total time  =        418 seconds =       6.97 minutes

*** tstart() called on n412-047.vsc4.prov
*** at Sat Jan 23 00:35:25 2021

	Wfn Parameters:
	--------------------
	Wavefunction         = CCSD_T
	Number of irreps     = 4
	Number of MOs        = 316
	Number of active MOs = 315
	AO-Basis             = NONE
	Semicanonical        = false
	Reference            = UHF
	Print Level          = 1

	IRREP	# MOs	# FZDC	# DOCC	# SOCC	# VIRT	# FZVR
	-----	-----	------	------	------	------	------
	 A1	   112	    1	    2	    0	    109	    0
	 A2	   50	    0	    0	    0	    50	    0
	 B1	   77	    0	    1	    0	    76	    0
	 B2	   77	    0	    0	    1	    76	    0
	Transforming integrals...
	IWL integrals will be deleted.
	(OO|OO)...
	Presorting SO-basis two-electron integrals.
	Sorting File: SO Ints (nn|nn) nbuckets = 1
	Constructing frozen core operators
	Starting AA/AB first half-transformation.
	Sorting AA/AB half-transformed integrals.
	Starting BB first half-transformation.
	Sorting BB half-transformed integrals.
	First half integral transformation complete.
	Starting AA second half-transformation.
	Starting AB second half-transformation.
	Starting BB second half-transformation.
	Two-electron integral transformation complete.
	(OO|OV)...
	Starting AA second half-transformation.
	Starting AB second half-transformation.
	Starting BB second half-transformation.
	Two-electron integral transformation complete.
	(OO|VV)...
	Starting AA second half-transformation.
	Starting AB second half-transformation.
	Starting BB second half-transformation.
	Two-electron integral transformation complete.
	(OV|OO)...
	Starting AA/AB first half-transformation.
	Sorting AA/AB half-transformed integrals.
	Starting BB first half-transformation.
	Sorting BB half-transformed integrals.
	First half integral transformation complete.
	Starting AA second half-transformation.
	Starting AB second half-transformation.
	Starting BB second half-transformation.
	Two-electron integral transformation complete.
	(OV|OV)...
	Starting AA second half-transformation.
	Starting AB second half-transformation.
	Starting BB second half-transformation.
	Two-electron integral transformation complete.
	(OV|VV)...
	Starting AA second half-transformation.
	Starting AB second half-transformation.
	Starting BB second half-transformation.
	Two-electron integral transformation complete.
	(VV|OO)...
	Starting AA/AB first half-transformation.
	Sorting AA/AB half-transformed integrals.
	Starting BB first half-transformation.
	Sorting BB half-transformed integrals.
	First half integral transformation complete.
	Starting AA second half-transformation.
	Starting AB second half-transformation.
	Starting BB second half-transformation.
	Two-electron integral transformation complete.
	(VV|OV)...
	Starting AA second half-transformation.
	Starting AB second half-transformation.
	Starting BB second half-transformation.
	Two-electron integral transformation complete.
	(VV|VV)...
	Starting AA second half-transformation.
	Starting AB second half-transformation.
	Starting BB second half-transformation.
	Two-electron integral transformation complete.
	Frozen core energy     =    -76.53570132101500

	Size of irrep 0 of <AB|CD> integrals:    164.122 (MW) /   1312.974 (MB)
	Size of irrep 1 of <AB|CD> integrals:    126.023 (MW) /   1008.185 (MB)
	Size of irrep 2 of <AB|CD> integrals:    146.023 (MW) /   1168.184 (MB)
	Size of irrep 3 of <AB|CD> integrals:    146.023 (MW) /   1168.184 (MB)
	Total:                                   582.191 (MW) /   4657.527 (MB)

	Size of irrep 0 of <ab|cd> integrals:    166.075 (MW) /   1328.598 (MB)
	Size of irrep 1 of <ab|cd> integrals:    127.735 (MW) /   1021.882 (MB)
	Size of irrep 2 of <ab|cd> integrals:    147.234 (MW) /   1177.872 (MB)
	Size of irrep 3 of <ab|cd> integrals:    148.669 (MW) /   1189.354 (MB)
	Total:                                   589.713 (MW) /   4717.705 (MB)

	Size of irrep 0 of <Ab|Cd> integrals:    676.468 (MW) /   5411.745 (MB)
	Size of irrep 1 of <Ab|Cd> integrals:    507.511 (MW) /   4060.086 (MB)
	Size of irrep 2 of <Ab|Cd> integrals:    586.512 (MW) /   4692.092 (MB)
	Size of irrep 3 of <Ab|Cd> integrals:    589.373 (MW) /   4714.982 (MB)
	Total:                                  2359.863 (MW) /  18878.905 (MB)

	Size of irrep 0 of <IA|BC> integrals:      9.595 (MW) /     76.762 (MB)
	Size of irrep 1 of <IA|BC> integrals:      5.658 (MW) /     45.263 (MB)
	Size of irrep 2 of <IA|BC> integrals:      7.516 (MW) /     60.130 (MB)
	Size of irrep 3 of <IA|BC> integrals:      7.516 (MW) /     60.130 (MB)
	Total:                                    30.286 (MW) /    242.285 (MB)

	Size of irrep 0 of <ia|bc> integrals:      7.669 (MW) /     61.354 (MB)
	Size of irrep 1 of <ia|bc> integrals:      4.001 (MW) /     32.007 (MB)
	Size of irrep 2 of <ia|bc> integrals:      6.334 (MW) /     50.672 (MB)
	Size of irrep 3 of <ia|bc> integrals:      4.975 (MW) /     39.798 (MB)
	Total:                                    22.979 (MW) /    183.831 (MB)

	Size of irrep 0 of <Ia|Bc> integrals:      9.649 (MW) /     77.195 (MB)

      * MP2 total energy                      =  -99.783682180141568
      * CCSD total energy                     =  -99.792597723241386
      * CCSD(T) total energy                     =  -99.797800833582940
*** Psi4 exiting successfully. Buy a developer a beer!
