                               Psi4 1.2a1.dev938

  ==> Input File <==

--------------------------------------------------------------------------
# Any line starting with the # character is a comment line
memory 250000 mb
molecule molecule{
0 2
N          0.0000000000        0.0000000000        0.0799387399
H          0.0000000000        0.8010586797       -0.5554288686
H          0.0000000000       -0.8010586797       -0.5554288686
}

set {
  reference uhf
  basis aug-cc-pv(d+d)z
  scf_type OUT_OF_CORE
  freeze_core true
}

energy('ccsd')
--------------------------------------------------------------------------

    Molecular point group: c2v

    Geometry (in Angstrom), charge = 0, multiplicity = 2:

       Center              X                  Y                   Z               Mass
    ------------   -----------------  -----------------  -----------------  -----------------
           N          0.000000000000     0.000000000000     0.079948862051    14.003074004780
           H         -0.000000000000     0.801058679700    -0.555418746449     1.007825032070
           H          0.000000000000    -0.801058679700    -0.555418746449     1.007825032070

  Charge       = 0
  Multiplicity = 2
  Basis Set: AUG-CC-PV(D+D)Z
    Blend: AUG-CC-PV(D+D)Z

    Orbital Energies (a.u.)
    -----------------------

    Alpha Occupied:

       1A1   -15.606195     2A1    -1.168453     1B2    -0.648120
       1B1    -0.514423     3A1    -0.508203

    Alpha Virtual:

       4A1     0.034868     2B2     0.058018     2B1     0.153129
       5A1     0.153849     6A1     0.198319     3B2     0.205232
       4B2     0.285778     7A1     0.308656     1A2     0.365870
       8A1     0.373255     3B1     0.402312     5B2     0.528144
       9A1     0.594415     6B2     0.613532     7B2     0.698226
      10A1     0.723068     4B1     0.788738     2A2     0.859201
      11A1     0.870034    12A1     1.115509     5B1     1.199709
       8B2     1.200517    13A1     1.284500     9B2     1.816738
       3A2     1.831464     6B1     1.942032    14A1     2.069128
      10B2     2.141654    15A1     2.256966    11B2     2.365471
      16A1     2.416569     7B1     2.635715     4A2     2.705500
      17A1     2.821859    18A1     3.162816    12B2     3.482664

    Beta Occupied:

       1A1   -15.574223     2A1    -1.046904     1B2    -0.623335
       3A1    -0.462892

    Beta Virtual:

       4A1     0.036502     2B2     0.058551     1B1     0.071274
       5A1     0.156844     3B2     0.205835     6A1     0.205919
       2B1     0.227007     4B2     0.290368     7A1     0.313242
       1A2     0.374273     8A1     0.380021     3B1     0.441116
       5B2     0.528084     9A1     0.610428     6B2     0.619064
       7B2     0.700637    10A1     0.767650     4B1     0.830910
      11A1     0.872626     2A2     0.892164    12A1     1.123137
       8B2     1.210098    13A1     1.304618     5B1     1.334731
       9B2     1.820565     3A2     1.847561     6B1     1.960513
      14A1     2.075648    10B2     2.144245    15A1     2.291772
      11B2     2.377618    16A1     2.480240     7B1     2.710435
       4A2     2.778401    17A1     2.839619    18A1     3.192707
      12B2     3.494963

    Final Occupation by Irrep:
             A1    A2    B1    B2
    DOCC [     3,    0,    0,    1 ]
    SOCC [     0,    0,    1,    0 ]

  Energy converged.

  @UHF Final Energy:   -55.57511896045258

   => Energetics <=

    Nuclear Repulsion Energy =              7.5761699881110092
    One-Electron Energy =                 -90.1498298816645445
    Two-Electron Energy =                  26.9985409331009549
    PCM Polarization Energy =               0.0000000000000000
    Total Energy =                        -55.5751189604525848

    Alert: EFP and PCM quantities not currently incorporated into SCF psivars.
  UHF NO Occupations:
  HONO-2 :    1 B2 1.9990717
  HONO-1 :    3 A1 1.9970536
  HONO-0 :    1 B1 1.0000000
  LUNO+0 :    4 A1 0.0029464
  LUNO+1 :    2 B2 0.0009283
  LUNO+2 :    5 A1 0.0006738
  LUNO+3 :    6 A1 0.0000005

Properties will be evaluated at   0.000000,   0.000000,   0.000000 Bohr

Properties computed using the SCF density matrix

  Nuclear Dipole Moment: (a.u.)
     X:     0.0000      Y:     0.0000      Z:    -1.0416

  Electronic Dipole Moment: (a.u.)
     X:     0.0000      Y:     0.0000      Z:     0.2943

  Dipole Moment: (a.u.)
     X:     0.0000      Y:     0.0000      Z:    -0.7473     Total:     0.7473

  Dipole Moment: (Debye)
     X:     0.0000      Y:     0.0000      Z:    -1.8995     Total:     1.8995

*** tstop() called on cqc05 at Thu Aug 20 19:54:31 2020
Module time:
	user time   =       0.42 seconds =       0.01 minutes
	system time =       0.01 seconds =       0.00 minutes
	total time  =          0 seconds =       0.00 minutes
Total time:
	user time   =       0.42 seconds =       0.01 minutes
	system time =       0.01 seconds =       0.00 minutes
	total time  =          0 seconds =       0.00 minutes

*** tstart() called on cqc05
*** at Thu Aug 20 19:54:31 2020

	Wfn Parameters:
	--------------------
	Wavefunction         = CCSD
	Number of irreps     = 4
	Number of MOs        = 41
	Number of active MOs = 40
	AO-Basis             = NONE
	Semicanonical        = false
	Reference            = UHF
	Print Level          = 1

	IRREP	# MOs	# FZDC	# DOCC	# SOCC	# VIRT	# FZVR
	-----	-----	------	------	------	------	------
	 A1	   18	    1	    2	    0	    15	    0
	 A2	   4	    0	    0	    0	    4	    0
	 B1	   7	    0	    0	    1	    6	    0
	 B2	   12	    0	    1	    0	    11	    0
	Transforming integrals...
	IWL integrals will be deleted.
	(OO|OO)...
	Presorting SO-basis two-electron integrals.
	Sorting File: SO Ints (nn|nn) nbuckets = 1
	Transforming the one-electron integrals and constructing Fock matrices
	Starting AA/AB first half-transformation.
	Sorting AA/AB half-transformed integrals.
	Starting BB first half-transformation.
	Sorting BB half-transformed integrals.
	First half integral transformation complete.
	Starting AA second half-transformation.
	Starting AB second half-transformation.
	Starting BB second half-transformation.
	Two-electron integral transformation complete.
	(OO|OV)...
	Starting AA second half-transformation.
	Starting AB second half-transformation.
	Starting BB second half-transformation.
	Two-electron integral transformation complete.
	(OO|VV)...
	Starting AA second half-transformation.
	Starting AB second half-transformation.
	Starting BB second half-transformation.
	Two-electron integral transformation complete.
	(OV|OO)...
	Starting AA/AB first half-transformation.
	Sorting AA/AB half-transformed integrals.
	Starting BB first half-transformation.
	Sorting BB half-transformed integrals.
	First half integral transformation complete.
	Starting AA second half-transformation.
	Starting AB second half-transformation.
	Starting BB second half-transformation.
	Two-electron integral transformation complete.
	(OV|OV)...
	Starting AA second half-transformation.
	Starting AB second half-transformation.
	Starting BB second half-transformation.
	Two-electron integral transformation complete.
	(OV|VV)...
	Starting AA second half-transformation.
	Starting AB second half-transformation.
	Starting BB second half-transformation.
	Two-electron integral transformation complete.
	(VV|OO)...
	Starting AA/AB first half-transformation.
	Sorting AA/AB half-transformed integrals.
	Starting BB first half-transformation.
	Sorting BB half-transformed integrals.
	First half integral transformation complete.
	Starting AA second half-transformation.
	Starting AB second half-transformation.
	Starting BB second half-transformation.
	Two-electron integral transformation complete.
	(VV|OV)...
	Starting AA second half-transformation.
	Starting AB second half-transformation.
	Starting BB second half-transformation.
	Two-electron integral transformation complete.
	(VV|VV)...
	Starting AA second half-transformation.
	Starting AB second half-transformation.
	Starting BB second half-transformation.
	Two-electron integral transformation complete.
	Frozen core energy     =    -46.80253007255222

	Size of irrep 0 of <AB|CD> integrals:      0.033 (MW) /      0.262 (MB)
	Size of irrep 1 of <AB|CD> integrals:      0.016 (MW) /      0.127 (MB)
	Size of irrep 2 of <AB|CD> integrals:      0.018 (MW) /      0.144 (MB)
	Size of irrep 3 of <AB|CD> integrals:      0.036 (MW) /      0.286 (MB)
	Total:                                     0.102 (MW) /      0.819 (MB)

	Size of irrep 0 of <ab|cd> integrals:      0.035 (MW) /      0.280 (MB)
	Size of irrep 1 of <ab|cd> integrals:      0.019 (MW) /      0.150 (MB)
	Size of irrep 2 of <ab|cd> integrals:      0.022 (MW) /      0.178 (MB)
	Size of irrep 3 of <ab|cd> integrals:      0.037 (MW) /      0.298 (MB)
	Total:                                     0.113 (MW) /      0.906 (MB)

	Size of irrep 0 of <Ab|Cd> integrals:      0.163 (MW) /      1.306 (MB)
	Size of irrep 1 of <Ab|Cd> integrals:      0.069 (MW) /      0.553 (MB)
	Size of irrep 2 of <Ab|Cd> integrals:      0.080 (MW) /      0.641 (MB)
	Size of irrep 3 of <Ab|Cd> integrals:      0.146 (MW) /      1.167 (MB)
	Total:                                     0.458 (MW) /      3.667 (MB)

	Size of irrep 0 of <IA|BC> integrals:      0.019 (MW) /      0.150 (MB)
	Size of irrep 1 of <IA|BC> integrals:      0.006 (MW) /      0.050 (MB)
	Size of irrep 2 of <IA|BC> integrals:      0.008 (MW) /      0.066 (MB)
	Size of irrep 3 of <IA|BC> integrals:      0.015 (MW) /      0.124 (MB)
	Total:                                     0.049 (MW) /      0.390 (MB)

	Size of irrep 0 of <ia|bc> integrals:      0.017 (MW) /      0.135 (MB)
	Size of irrep 1 of <ia|bc> integrals:      0.004 (MW) /      0.033 (MB)
	Size of irrep 2 of <ia|bc> integrals:      0.005 (MW) /      0.043 (MB)
	Size of irrep 3 of <ia|bc> integrals:      0.014 (MW) /      0.114 (MB)
	Total:                                     0.041 (MW) /      0.325 (MB)

	Size of irrep 0 of <Ia|Bc> integrals:      0.019 (MW) /      0.155 (MB)
	Size of irrep 1 of <Ia|Bc> integrals:      0.007 (MW) /      0.055 (MB)
	Size of irrep 2 of <Ia|Bc> integrals:      0.009 (MW) /      0.075 (MB)
	Size of irrep 3 of <Ia|Bc> integrals:      0.016 (MW) /      0.125 (MB)
	Total:                                     0.051 (MW) /      0.410 (MB)

	Size of irrep 0 of <iA|bC> integrals:      0.017 (MW) /      0.133 (MB)
	Size of irrep 1 of <iA|bC> integrals:      0.004 (MW) /      0.029 (MB)
	Size of irrep 2 of <iA|bC> integrals:      0.005 (MW) /      0.036 (MB)
	Size of irrep 3 of <iA|bC> integrals:      0.014 (MW) /      0.113 (MB)
	Total:                                     0.039 (MW) /      0.311 (MB)

	Size of irrep 0 of tIjAb amplitudes:       0.002 (MW) /      0.016 (MB)
	Size of irrep 1 of tIjAb amplitudes:       0.000 (MW) /      0.002 (MB)
	Size of irrep 2 of tIjAb amplitudes:       0.001 (MW) /      0.005 (MB)
	Size of irrep 3 of tIjAb amplitudes:       0.002 (MW) /      0.012 (MB)
	Total:                                     0.004 (MW) /      0.035 (MB)

	Nuclear Rep. energy          =      7.57616998811101
	SCF energy                   =    -55.57511896045258
	One-electron energy          =    -27.72518755892437
	Two-electron (AA) energy     =      3.01328363386982
	Two-electron (BB) energy     =      1.38461205471359
	Two-electron (AB) energy     =      6.97853299432959
	Two-electron energy          =     11.37642868291299
	Reference energy             =    -55.57511896045258

*** tstop() called on cqc05 at Thu Aug 20 19:54:31 2020
Module time:
	user time   =       0.09 seconds =       0.00 minutes
	system time =       0.07 seconds =       0.00 minutes
	total time  =          0 seconds =       0.00 minutes
Total time:
	user time   =       0.51 seconds =       0.01 minutes
	system time =       0.08 seconds =       0.00 minutes
	total time  =          0 seconds =       0.00 minutes

*** tstart() called on cqc05
*** at Thu Aug 20 19:54:31 2020

            **************************
            *                        *
            *        CCENERGY        *
            *                        *
            **************************

    Nuclear Rep. energy (wfn)     =    7.576169988111009
    SCF energy          (wfn)     =  -55.575118960452585
    Reference energy    (file100) =  -55.575118960452585

    Input parameters:
    -----------------
    Wave function   =     CCSD
    Reference wfn   =     UHF
    Brueckner       =     No
    Memory (Mbytes) =     250000.0
    Maxiter         =     50
    R_Convergence   =     1.0e-07
    E_Convergence   =     1.0e-06
    Restart         =     Yes
    DIIS            =     Yes
    AO Basis        =     NONE
    ABCD            =     NEW
    Cache Level     =     2
    Cache Type      =     LRU
    Print Level     =     1
    Num. of threads =     4
    # Amps to Print =     10
    Print MP2 Amps? =     No
    Analyze T2 Amps =     No
    Print Pair Ener =     No
    Local CC        =     No
    SCS-MP2         =     False
    SCSN-MP2        =     False
    SCS-CCSD        =     False

MP2 correlation energy -0.1532238673212648
                Solving CC Amplitude Equations
                ------------------------------
  Iter             Energy              RMS        T1Diag      D1Diag    New D1Diag    D2Diag
  ----     ---------------------    ---------   ----------  ----------  ----------   --------
     0        -0.153223867321265    0.000e+00    0.000000    0.000000    0.000000    0.000000
     1        -0.166956426822396    4.250e-02    0.010308    0.000000    0.000000    0.000000
     2        -0.171787782264288    1.504e-02    0.013511    0.000000    0.000000    0.000000
     3        -0.172602924675353    5.946e-03    0.015389    0.000000    0.000000    0.000000
     4        -0.172593097002824    2.284e-03    0.015868    0.000000    0.000000    0.000000
     5        -0.172598570272851    8.765e-04    0.015926    0.000000    0.000000    0.000000
     6        -0.172613426623908    3.248e-04    0.015915    0.000000    0.000000    0.000000
     7        -0.172615153991577    1.166e-04    0.015894    0.000000    0.000000    0.000000
     8        -0.172615477448769    3.971e-05    0.015889    0.000000    0.000000    0.000000
     9        -0.172615415461531    1.593e-05    0.015888    0.000000    0.000000    0.000000
    10        -0.172615382911884    7.610e-06    0.015888    0.000000    0.000000    0.000000
    11        -0.172615441867484    3.146e-06    0.015888    0.000000    0.000000    0.000000
    12        -0.172615486658442    1.209e-06    0.015889    0.000000    0.000000    0.000000
    13        -0.172615500442789    4.584e-07    0.015889    0.000000    0.000000    0.000000
    14        -0.172615503631366    1.748e-07    0.015889    0.000000    0.000000    0.000000
    15        -0.172615503539169    7.656e-08    0.015889    0.000000    0.000000    0.000000
    15        -0.172615503539169    7.656e-08    0.015889    0.000000    0.000000    0.000000

    Iterations converged.

    CCSD corr. energy   =   -0.172615503539169
    PPL corr. energy    =    0.037927828698431
    OS PPL corr. energy =    0.032323925987888
    SS PPL corr. energy =    0.005603902710543
    Largest TIA Amplitudes:
              2  19        -0.0199492148
              2  20        -0.0147538308
              1   1         0.0127492112
              1   4         0.0105700372
              3  34         0.0065720128
              3  27        -0.0062284880
              0   2         0.0058374213
              0   6         0.0040502072
              1  12        -0.0039276842
              1   6        -0.0036972452

    Largest Tia Amplitudes:
              1   4         0.0124270620
              1   1         0.0101369507
              2  35         0.0074313501
              0   6        -0.0068619504
              0  12        -0.0064751073
              0   4        -0.0059281000
              2  31         0.0051592048
              2  32         0.0046856851
              0   3         0.0044743853
              0   8        -0.0043052615

    Largest TIJAB Amplitudes:
      2   1  22   9        -0.0170291090
      3   1  30   7        -0.0149897770
      3   1  27   4         0.0148660922
      3   2  27  22        -0.0142663319
      2   1  20   4         0.0141659540
      3   2  16   6         0.0135694076
      3   2  31  22        -0.0135679829
      2   1  22   4         0.0133899488
      2   1  21   6        -0.0133818296
      3   2  27  20        -0.0129419767

    Largest Tijab Amplitudes:
      2   1  28   4         0.0148666467
      2   1  31   7        -0.0145461602
      2   1  31   4         0.0121341229
      2   1  28   9        -0.0114946293
      2   1  28   1         0.0103186322
      2   1  32   9        -0.0101515247
      2   1  31   9        -0.0094160404
      2   1  31   3         0.0086379038
      2   1  28   7        -0.0085364679
      1   0  22  19        -0.0082282162

    Largest TIjAb Amplitudes:
      3   2  27  28        -0.0368300318
      3   2  30  31        -0.0331521554
      1   1   9   9        -0.0328347140
      1   1  30  31        -0.0314493289
      3   2  27  31        -0.0291537094
      1   1   4   4        -0.0281269344
      3   2  30  28        -0.0278141049
      2   0   6  19         0.0263457909
      1   1  27  28        -0.0250718249
      2   1  22   9        -0.0248345004

    SCF energy       (wfn)                    =  -55.575118960452585
    Reference energy (file100)                =  -55.575118960452585

    Opposite-spin MP2 correlation energy      =   -0.118637558826262
    Same-spin MP2 correlation energy          =   -0.034586308494994
    MP2 correlation energy                    =   -0.153223867321265
      * MP2 total energy                      =  -55.728342827773851

    Opposite-spin CCSD correlation energy     =   -0.139319848896555
    Same-spin CCSD correlation energy         =   -0.033295653882529
    CCSD correlation energy                   =   -0.172615503539169
      * CCSD total energy                     =  -55.747734463991755

*** tstop() called on cqc05 at Thu Aug 20 19:54:33 2020
Module time:

*** Psi4 exiting successfully. Buy a developer a beer!
