                               Psi4 1.2a1.dev938

  ==> Input File <==

--------------------------------------------------------------------------
# Any line starting with the # character is a comment line
memory 250000 mb
molecule molecule{
0 2
N          0.0000000000        0.0000000000        0.0799387399
H          0.0000000000        0.8010586797       -0.5554288686
H          0.0000000000       -0.8010586797       -0.5554288686
}

set {
  reference uhf
  basis aug-cc-pv(q+d)z
  scf_type OUT_OF_CORE
  freeze_core true
}

energy('ccsd')
--------------------------------------------------------------------------

    Molecular point group: c2v

    Geometry (in Angstrom), charge = 0, multiplicity = 2:

       Center              X                  Y                   Z               Mass
    ------------   -----------------  -----------------  -----------------  -----------------
           N          0.000000000000     0.000000000000     0.079948862051    14.003074004780
           H         -0.000000000000     0.801058679700    -0.555418746449     1.007825032070
           H          0.000000000000    -0.801058679700    -0.555418746449     1.007825032070

  Charge       = 0
  Multiplicity = 2
  Basis Set: AUG-CC-PV(Q+D)Z
    Blend: AUG-CC-PV(Q+D)Z

    Orbital Energies (a.u.)
    -----------------------

    Alpha Occupied:

       1A1   -15.594900     2A1    -1.166312     1B2    -0.647987
       1B1    -0.516109     3A1    -0.508201

    Alpha Virtual:

       4A1     0.025918     2B2     0.042561     2B1     0.100814
       5A1     0.101774     6A1     0.134730     3B2     0.142710
       4B2     0.180694     7A1     0.189820     1A2     0.203622
       3B1     0.229924     8A1     0.238134     5B2     0.289793
       9A1     0.349613    10A1     0.371445     6B2     0.380082
       7B2     0.386192     4B1     0.398643     2A2     0.435503
      11A1     0.446861    12A1     0.553678     5B1     0.573623
       8B2     0.595086     3A2     0.631326    13A1     0.636122
       6B1     0.645440    14A1     0.673902     9B2     0.708210
       7B1     0.739807    10B2     0.749587    15A1     0.766222
      11B2     0.774340    16A1     0.822093     4A2     0.842177
      12B2     0.849308    17A1     0.963865     5A2     1.004832
      18A1     1.048412     8B1     1.059868     9B1     1.141568
      19A1     1.142180    13B2     1.177748     6A2     1.188537
      20A1     1.257143    10B1     1.280713    14B2     1.346891
      15B2     1.464746    21A1     1.479378    11B1     1.491619
      16B2     1.512921    22A1     1.560096     7A2     1.614173
      23A1     1.620417    17B2     1.626124    24A1     1.669071
      12B1     1.686771    25A1     1.798082    18B2     1.817430
       8A2     1.844273    19B2     1.883311    13B1     1.924096
      20B2     1.927067    26A1     1.950036     9A2     1.955686
      14B1     1.985775    10A2     2.029153    27A1     2.107771
      28A1     2.124394    21B2     2.175645    22B2     2.261472
      15B1     2.425671    11A2     2.668564    29A1     2.671888
      16B1     2.695722    30A1     2.734257    17B1     2.856267
      23B2     2.935851    24B2     2.953158    25B2     3.007957
      31A1     3.049417    12A2     3.062935    32A1     3.084285
      13A2     3.093138    18B1     3.108536    33A1     3.175594
      19B1     3.218479    26B2     3.222844    34A1     3.268797
      27B2     3.278023    14A2     3.323150    35A1     3.331246
      20B1     3.350548    36A1     3.531415    28B2     3.588704
      37A1     3.882685    15A2     3.927989    38A1     3.985376
      21B1     3.986020    29B2     3.999397    16A2     4.137572
      30B2     4.147964    22B1     4.222878    39A1     4.302097
      40A1     4.439491    31B2     4.620643    23B1     4.925146
      41A1     4.944886    32B2     4.980079    17A2     5.071413
      33B2     5.284699    42A1     5.322391    24B1     6.733774
      43A1     6.762817    18A2     6.765726    34B2     6.786598
      19A2     7.128862    35B2     7.293632    44A1     7.360618
      36B2     7.379231    25B1     7.380887    20A2     7.491844
      37B2     7.659865    26B1     7.675393    45A1     7.679912
      46A1     7.878549    27B1     8.173127    21A2     8.222424
      47A1     8.222425    38B2     8.246069    48A1     8.313822
      28B1     8.452347    49A1     8.456190    22A2     8.505440
      39B2     8.515305    50A1     8.563205    29B1     8.577388
      40B2     8.902609    23A2     8.951696    30B1     8.969658
      51A1     8.981655    41B2     9.052947    31B1     9.140885
      42B2     9.185047    52A1     9.212610    53A1     9.291453
      54A1     9.454322    43B2     9.480143    24A2     9.484441
      32B1     9.551223    33B1     9.682760    25A2     9.691832
      55A1     9.821993    44B2     9.954348    45B2    10.264882
      56A1    10.406044    34B1    10.413481    26A2    10.445319
      46B2    10.666816    57A1    10.921393    58A1    11.734843
      35B1    11.960282    27A2    12.150006    47B2    12.250256
      59A1    12.271868    48B2    12.877171    60A1    14.357831
      49B2    14.841810    61A1    34.182338

    Beta Occupied:

       1A1   -15.563669     2A1    -1.045168     1B2    -0.623985
       3A1    -0.464048

    Beta Virtual:

       4A1     0.027029     2B2     0.042816     1B1     0.061680
       5A1     0.103067     6A1     0.138980     3B2     0.143353
       2B1     0.152342     4B2     0.181945     7A1     0.189996
       1A2     0.205562     8A1     0.242465     3B1     0.259921
       5B2     0.289598     9A1     0.358755    10A1     0.381862
       6B2     0.383917     7B2     0.387242     4B1     0.417186
       2A2     0.444395    11A1     0.447022    12A1     0.556294
       8B2     0.596885     5B1     0.602199     3A2     0.633998
      13A1     0.645905     6B1     0.676765    14A1     0.680713
       9B2     0.708219    10B2     0.751352     7B1     0.770660
      11B2     0.777304    15A1     0.778230    16A1     0.824771
       4A2     0.844278    12B2     0.854790    17A1     0.976231
       5A2     1.033713    18A1     1.071221     8B1     1.096612
      19A1     1.149548     9B1     1.152375    13B2     1.183217
       6A2     1.194162    20A1     1.259533    10B1     1.291868
      14B2     1.347505    15B2     1.466099    21A1     1.505925
      16B2     1.516215    11B1     1.531482    22A1     1.575372
      23A1     1.624971     7A2     1.626242    17B2     1.629801
      24A1     1.674828    12B1     1.690087    25A1     1.801566
      18B2     1.821240     8A2     1.844721    19B2     1.883566
      20B2     1.928756    13B1     1.933418    26A1     1.952592
       9A2     1.971817    14B1     1.990255    10A2     2.038257
      27A1     2.110766    28A1     2.127638    21B2     2.175958
      22B2     2.271804    15B1     2.496715    29A1     2.680633
      11A2     2.682647    16B1     2.714254    30A1     2.756723
      17B1     2.872627    23B2     2.938798    24B2     2.954568
      25B2     3.008216    31A1     3.052469    12A2     3.070165
      32A1     3.093569    13A2     3.105441    18B1     3.145679
      33A1     3.207902    26B2     3.245879    19B1     3.246713
      27B2     3.284340    34A1     3.311897    35A1     3.341967
      14A2     3.353417    20B1     3.377307    36A1     3.547552
      28B2     3.589702    37A1     3.895167    15A2     3.937851
      38A1     3.998525    21B1     4.006209    29B2     4.018184
      30B2     4.149260    16A2     4.159558    22B1     4.240157
      39A1     4.309037    40A1     4.453559    31B2     4.629276
      41A1     4.956462    23B1     4.957049    32B2     4.988373
      17A2     5.101844    33B2     5.291027    42A1     5.344030
      24B1     6.735666    43A1     6.764873    18A2     6.767779
      34B2     6.787468    19A2     7.135397    35B2     7.301426
      44A1     7.370221    36B2     7.381026    25B1     7.392527
      20A2     7.501948    37B2     7.660307    45A1     7.686057
      26B1     7.687120    46A1     7.883972    27B1     8.192181
      47A1     8.236996    21A2     8.239670    38B2     8.248593
      48A1     8.324710    28B1     8.459714    49A1     8.470794
      22A2     8.510006    39B2     8.524169    50A1     8.580063
      29B1     8.628248    40B2     8.908892    23A2     8.966525
      51A1     9.001645    30B1     9.004719    41B2     9.056890
      31B1     9.163683    42B2     9.210790    52A1     9.235332
      53A1     9.302420    54A1     9.460879    43B2     9.498051
      24A2     9.498497    32B1     9.570709    25A2     9.702333
      33B1     9.708894    55A1     9.841810    44B2     9.956497
      45B2    10.274099    56A1    10.415134    34B1    10.452908
      26A2    10.482901    46B2    10.673529    57A1    10.941356
      58A1    11.744724    35B1    11.984856    27A2    12.174808
      47B2    12.255488    59A1    12.279009    48B2    12.886100
      60A1    14.367231    49B2    14.846383    61A1    34.201816

    Final Occupation by Irrep:
             A1    A2    B1    B2
    DOCC [     3,    0,    0,    1 ]
    SOCC [     0,    0,    1,    0 ]

  Energy converged.

  @UHF Final Energy:   -55.59145576934657

   => Energetics <=

    Nuclear Repulsion Energy =              7.5761699881110092
    One-Electron Energy =                 -90.2048719100785945
    Two-Electron Energy =                  27.0372461526210230
    PCM Polarization Energy =               0.0000000000000000
    Total Energy =                        -55.5914557693465667

    Alert: EFP and PCM quantities not currently incorporated into SCF psivars.
  UHF NO Occupations:
  HONO-2 :    1 B2 1.9990261
  HONO-1 :    3 A1 1.9968611
  HONO-0 :    1 B1 1.0000000
  LUNO+0 :    4 A1 0.0031389
  LUNO+1 :    2 B2 0.0009739
  LUNO+2 :    5 A1 0.0007180
  LUNO+3 :    6 A1 0.0000013

Properties will be evaluated at   0.000000,   0.000000,   0.000000 Bohr

Properties computed using the SCF density matrix

  Nuclear Dipole Moment: (a.u.)
     X:     0.0000      Y:     0.0000      Z:    -1.0416

  Electronic Dipole Moment: (a.u.)
     X:     0.0000      Y:     0.0000      Z:     0.2993

  Dipole Moment: (a.u.)
     X:     0.0000      Y:     0.0000      Z:    -0.7423     Total:     0.7423

  Dipole Moment: (Debye)
     X:     0.0000      Y:     0.0000      Z:    -1.8867     Total:     1.8867

*** tstop() called on cqc05 at Thu Aug 20 21:00:52 2020
Module time:
	user time   =      14.72 seconds =       0.25 minutes
	system time =       1.02 seconds =       0.02 minutes
	total time  =         15 seconds =       0.25 minutes
Total time:
	user time   =      14.72 seconds =       0.25 minutes
	system time =       1.02 seconds =       0.02 minutes
	total time  =         15 seconds =       0.25 minutes

*** tstart() called on cqc05
*** at Thu Aug 20 21:00:52 2020

	Wfn Parameters:
	--------------------
	Wavefunction         = CCSD
	Number of irreps     = 4
	Number of MOs        = 172
	Number of active MOs = 171
	AO-Basis             = NONE
	Semicanonical        = false
	Reference            = UHF
	Print Level          = 1

	IRREP	# MOs	# FZDC	# DOCC	# SOCC	# VIRT	# FZVR
	-----	-----	------	------	------	------	------
	 A1	   61	    1	    2	    0	    58	    0
	 A2	   27	    0	    0	    0	    27	    0
	 B1	   35	    0	    0	    1	    34	    0
	 B2	   49	    0	    1	    0	    48	    0
	Transforming integrals...
	IWL integrals will be deleted.
	(OO|OO)...
	Presorting SO-basis two-electron integrals.
	Sorting File: SO Ints (nn|nn) nbuckets = 1
	Transforming the one-electron integrals and constructing Fock matrices
	Starting AA/AB first half-transformation.
	Sorting AA/AB half-transformed integrals.
	Starting BB first half-transformation.
	Sorting BB half-transformed integrals.
	First half integral transformation complete.
	Starting AA second half-transformation.
	Starting AB second half-transformation.
	Starting BB second half-transformation.
	Two-electron integral transformation complete.
	(OO|OV)...
	Starting AA second half-transformation.
	Starting AB second half-transformation.
	Starting BB second half-transformation.
	Two-electron integral transformation complete.
	(OO|VV)...
	Starting AA second half-transformation.
	Starting AB second half-transformation.
	Starting BB second half-transformation.
	Two-electron integral transformation complete.
	(OV|OO)...
	Starting AA/AB first half-transformation.
	Sorting AA/AB half-transformed integrals.
	Starting BB first half-transformation.
	Sorting BB half-transformed integrals.
	First half integral transformation complete.
	Starting AA second half-transformation.
	Starting AB second half-transformation.
	Starting BB second half-transformation.
	Two-electron integral transformation complete.
	(OV|OV)...
	Starting AA second half-transformation.
	Starting AB second half-transformation.
	Starting BB second half-transformation.
	Two-electron integral transformation complete.
	(OV|VV)...
	Starting AA second half-transformation.
	Starting AB second half-transformation.
	Starting BB second half-transformation.
	Two-electron integral transformation complete.
	(VV|OO)...
	Starting AA/AB first half-transformation.
	Sorting AA/AB half-transformed integrals.
	Starting BB first half-transformation.
	Sorting BB half-transformed integrals.
	First half integral transformation complete.
	Starting AA second half-transformation.
	Starting AB second half-transformation.
	Starting BB second half-transformation.
	Two-electron integral transformation complete.
	(VV|OV)...
	Starting AA second half-transformation.
	Starting AB second half-transformation.
	Starting BB second half-transformation.
	Two-electron integral transformation complete.
	(VV|VV)...
	Starting AA second half-transformation.
	Starting AB second half-transformation.
	Starting BB second half-transformation.
	Two-electron integral transformation complete.
	Frozen core energy     =    -46.80380990824328

	Size of irrep 0 of <AB|CD> integrals:     13.638 (MW) /    109.106 (MB)
	Size of irrep 1 of <AB|CD> integrals:     10.227 (MW) /     81.818 (MB)
	Size of irrep 2 of <AB|CD> integrals:     10.680 (MW) /     85.439 (MB)
	Size of irrep 3 of <AB|CD> integrals:     13.705 (MW) /    109.638 (MB)
	Total:                                    48.250 (MW) /    386.001 (MB)

	Size of irrep 0 of <ab|cd> integrals:     13.891 (MW) /    111.124 (MB)
	Size of irrep 1 of <ab|cd> integrals:     10.537 (MW) /     84.292 (MB)
	Size of irrep 2 of <ab|cd> integrals:     11.062 (MW) /     88.498 (MB)
	Size of irrep 3 of <ab|cd> integrals:     13.905 (MW) /    111.244 (MB)
	Total:                                    49.395 (MW) /    395.158 (MB)

	Size of irrep 0 of <Ab|Cd> integrals:     57.563 (MW) /    460.501 (MB)
	Size of irrep 1 of <Ab|Cd> integrals:     41.525 (MW) /    332.201 (MB)
	Size of irrep 2 of <Ab|Cd> integrals:     43.481 (MW) /    347.847 (MB)
	Size of irrep 3 of <Ab|Cd> integrals:     55.220 (MW) /    441.758 (MB)
	Total:                                   197.788 (MW) /   1582.306 (MB)

	Size of irrep 0 of <IA|BC> integrals:      1.495 (MW) /     11.964 (MB)
	Size of irrep 1 of <IA|BC> integrals:      0.870 (MW) /      6.959 (MB)
	Size of irrep 2 of <IA|BC> integrals:      1.000 (MW) /      8.000 (MB)
	Size of irrep 3 of <IA|BC> integrals:      1.340 (MW) /     10.721 (MB)
	Total:                                     4.705 (MW) /     37.644 (MB)

	Size of irrep 0 of <ia|bc> integrals:      1.250 (MW) /     10.000 (MB)
	Size of irrep 1 of <ia|bc> integrals:      0.578 (MW) /      4.622 (MB)
	Size of irrep 2 of <ia|bc> integrals:      0.645 (MW) /      5.162 (MB)
	Size of irrep 3 of <ia|bc> integrals:      1.149 (MW) /      9.188 (MB)
	Total:                                     3.622 (MW) /     28.973 (MB)

	Size of irrep 0 of <Ia|Bc> integrals:      1.510 (MW) /     12.079 (MB)
	Size of irrep 1 of <Ia|Bc> integrals:      0.883 (MW) /      7.063 (MB)
	Size of irrep 2 of <Ia|Bc> integrals:      1.022 (MW) /      8.177 (MB)
	Size of irrep 3 of <Ia|Bc> integrals:      1.345 (MW) /     10.760 (MB)
	Total:                                     4.760 (MW) /     38.078 (MB)

	Size of irrep 0 of <iA|bC> integrals:      1.244 (MW) /      9.954 (MB)
	Size of irrep 1 of <iA|bC> integrals:      0.567 (MW) /      4.537 (MB)
	Size of irrep 2 of <iA|bC> integrals:      0.626 (MW) /      5.011 (MB)
	Size of irrep 3 of <iA|bC> integrals:      1.144 (MW) /      9.155 (MB)
	Total:                                     3.582 (MW) /     28.657 (MB)

	Size of irrep 0 of tIjAb amplitudes:       0.038 (MW) /      0.303 (MB)
	Size of irrep 1 of tIjAb amplitudes:       0.006 (MW) /      0.052 (MB)
	Size of irrep 2 of tIjAb amplitudes:       0.013 (MW) /      0.106 (MB)
	Size of irrep 3 of tIjAb amplitudes:       0.030 (MW) /      0.238 (MB)
	Total:                                     0.087 (MW) /      0.698 (MB)

	Nuclear Rep. energy          =      7.57616998811101
	SCF energy                   =    -55.59145576934657
	One-electron energy          =    -27.75582105073715
	Two-electron (AA) energy     =      3.01786158103857
	Two-electron (BB) energy     =      1.38658497613505
	Two-electron (AB) energy     =      6.98755864434925
	Two-electron energy          =     11.39200520152287
	Reference energy             =    -55.59145576934655

*** tstop() called on cqc05 at Thu Aug 20 21:01:21 2020
Module time:
	user time   =      17.50 seconds =       0.29 minutes
	system time =      11.26 seconds =       0.19 minutes
	total time  =         29 seconds =       0.48 minutes
Total time:
	user time   =      32.22 seconds =       0.54 minutes
	system time =      12.28 seconds =       0.20 minutes
	total time  =         44 seconds =       0.73 minutes

*** tstart() called on cqc05
*** at Thu Aug 20 21:01:21 2020

            **************************
            *                        *
            *        CCENERGY        *
            *                        *
            **************************

    Nuclear Rep. energy (wfn)     =    7.576169988111009
    SCF energy          (wfn)     =  -55.591455769346567
    Reference energy    (file100) =  -55.591455769346553

    Input parameters:
    -----------------
    Wave function   =     CCSD
    Reference wfn   =     UHF
    Brueckner       =     No
    Memory (Mbytes) =     250000.0
    Maxiter         =     50
    R_Convergence   =     1.0e-07
    E_Convergence   =     1.0e-06
    Restart         =     Yes
    DIIS            =     Yes
    AO Basis        =     NONE
    ABCD            =     NEW
    Cache Level     =     2
    Cache Type      =     LRU
    Print Level     =     1
    Num. of threads =     4
    # Amps to Print =     10
    Print MP2 Amps? =     No
    Analyze T2 Amps =     No
    Print Pair Ener =     No
    Local CC        =     No
    SCS-MP2         =     False
    SCSN-MP2        =     False
    SCS-CCSD        =     False

MP2 correlation energy -0.2001760779788214
                Solving CC Amplitude Equations
                ------------------------------
  Iter             Energy              RMS        T1Diag      D1Diag    New D1Diag    D2Diag
  ----     ---------------------    ---------   ----------  ----------  ----------   --------
     0        -0.200176077978822    0.000e+00    0.000000    0.000000    0.000000    0.000000
     1        -0.209236298943738    3.926e-02    0.009432    0.000000    0.000000    0.000000
     2        -0.214179086036724    1.397e-02    0.011875    0.000000    0.000000    0.000000
     3        -0.214918459029708    5.755e-03    0.013703    0.000000    0.000000    0.000000
     4        -0.214883117372562    2.079e-03    0.014196    0.000000    0.000000    0.000000
     5        -0.214893970768224    8.357e-04    0.014319    0.000000    0.000000    0.000000
     6        -0.214901679425444    3.237e-04    0.014315    0.000000    0.000000    0.000000
     7        -0.214903043117173    1.078e-04    0.014298    0.000000    0.000000    0.000000
     8        -0.214904328680233    4.038e-05    0.014292    0.000000    0.000000    0.000000
     9        -0.214904152845080    1.460e-05    0.014290    0.000000    0.000000    0.000000
    10        -0.214904160719968    6.402e-06    0.014290    0.000000    0.000000    0.000000
    11        -0.214904215231447    2.623e-06    0.014290    0.000000    0.000000    0.000000
    12        -0.214904242429490    1.182e-06    0.014290    0.000000    0.000000    0.000000
    13        -0.214904252951093    4.249e-07    0.014290    0.000000    0.000000    0.000000

      * MP2 total energy                      =  -55.791631847325377
      * CCSD total energy                     =  -55.806360024834156
*** Psi4 exiting successfully. Buy a developer a beer!
