                               Psi4 1.2a1.dev939

  ==> Input File <==

--------------------------------------------------------------------------
# Any line starting with the # character is a comment line
memory 250000 mb
molecule molecule{
0 2
N          0.0000000000        0.0000000000        0.0799387399
H          0.0000000000        0.8010586797       -0.5554288686
H          0.0000000000       -0.8010586797       -0.5554288686
}

set {
  reference uhf
  basis aug-cc-pv(6+d)z
  scf_type OUT_OF_CORE
  freeze_core true
}

energy('ccsd')
--------------------------------------------------------------------------

    Molecular point group: c2v

    Geometry (in Angstrom), charge = 0, multiplicity = 2:

       Center              X                  Y                   Z               Mass
    ------------   -----------------  -----------------  -----------------  -----------------
           N          0.000000000000     0.000000000000     0.079948862051    14.003074004780
           H         -0.000000000000     0.801058679700    -0.555418746449     1.007825032070
           H          0.000000000000    -0.801058679700    -0.555418746449     1.007825032070

  Charge       = 0
  Multiplicity = 2
  Basis Set: AUG-CC-PV(6+D)Z
    Blend: AUG-CC-PV(6+D)Z

    Orbital Energies (a.u.)
    -----------------------

    Alpha Occupied:

       1A1   -15.594420     2A1    -1.166183     1B2    -0.647998
       1B1    -0.516188     3A1    -0.508223

    Alpha Virtual:

       4A1     0.020097     2B2     0.032960     5A1     0.068017
       2B1     0.069119     3B2     0.098374     6A1     0.103589
       4B2     0.139437     7A1     0.141930     1A2     0.152212
       3B1     0.163493     8A1     0.163605     5B2     0.215410
       6B2     0.251723     9A1     0.256323    10A1     0.282662
       7B2     0.289927     4B1     0.296676    11A1     0.311918
       2A2     0.348286     8B2     0.355057    12A1     0.357347
       5B1     0.379077     6B1     0.398056    13A1     0.399912
      14A1     0.416792     3A2     0.418943     7B1     0.435499
       9B2     0.475337    10B2     0.503689    15A1     0.508815
       4A2     0.523817    11B2     0.532360    16A1     0.565728
      12B2     0.592733    17A1     0.655019     8B1     0.664317
      13B2     0.670295     5A2     0.679812    18A1     0.683857
      19A1     0.715977    20A1     0.750552    14B2     0.782503
       9B1     0.784508     6A2     0.802950    15B2     0.813565
      10B1     0.820937    21A1     0.822683    22A1     0.948668
      11B1     0.958001    16B2     0.983260     7A2     1.005359
      12B1     1.008574    23A1     1.011148    17B2     1.034199
      13B1     1.042048    24A1     1.106819    25A1     1.125505
      18B2     1.126266     8A2     1.128496    26A1     1.159802
      19B2     1.165140     9A2     1.174030    14B1     1.197800
      20B2     1.218827    15B1     1.289002    27A1     1.290023
      10A2     1.295132    21B2     1.295638    28A1     1.298413
      29A1     1.331621    22B2     1.404443    23B2     1.459200
      30A1     1.627809    16B1     1.678698    11A2     1.734644
      17B1     1.765662    31A1     1.780906    24B2     1.795257
      32A1     1.799605    12A2     1.814842    18B1     1.837368
      25B2     1.840687    33A1     1.863106    26B2     1.876021
      27B2     1.897591    19B1     1.903352    34A1     1.925905
      13A2     1.927885    35A1     1.946749    20B1     1.966503
      14A2     2.030741    36A1     2.052231    28B2     2.171698
      37A1     2.198130    21B1     2.213558    15A2     2.215741
      38A1     2.240914    22B1     2.270204    29B2     2.284183
      39A1     2.315367    30B2     2.352500    40A1     2.352516
      16A2     2.410404    31B2     2.411124    23B1     2.415983
      41A1     2.455383    17A2     2.467722    32B2     2.473846
      18A2     2.486820    24B1     2.496112    25B1     2.518138
      42A1     2.521128    33B2     2.525446    43A1     2.539467
      44A1     2.549194    19A2     2.569780    34B2     2.576316
      26B1     2.605689    35B2     2.623724    45A1     2.661526
      36B2     2.717627    20A2     2.754911    27B1     2.864206
      46A1     2.916016    37B2     2.948914    38B2     3.125466
      47A1     3.219490    21A2     3.224012    39B2     3.282193
      28B1     3.320071    48A1     3.334465    29B1     3.503304
      49A1     3.658592    50A1     3.743464    40B2     3.807227
      30B1     3.868917    22A2     3.878576    41B2     3.880941
      51A1     3.924300    31B1     3.931455    52A1     3.963868
      23A2     4.015416    42B2     4.016961    32B1     4.095828
      53A1     4.132747    43B2     4.151230    54A1     4.176174
      24A2     4.178934    44B2     4.183865    25A2     4.231676
      33B1     4.255234    34B1     4.291310    55A1     4.299310
      26A2     4.316679    45B2     4.364206    56A1     4.379565
      35B1     4.408612    46B2     4.423181    57A1     4.486515
      58A1     4.525708    36B1     4.547372    47B2     4.547945
      27A2     4.558240    59A1     4.620553    28A2     4.646022
      37B1     4.646184    38B1     4.722095    60A1     4.730639
      48B2     4.744632    49B2     4.790347    29A2     4.803065
      61A1     4.834445    50B2     4.912394    30A2     4.925540
      62A1     4.977213    63A1     4.989859    39B1     5.026125
      51B2     5.054933    40B1     5.082593    31A2     5.096491
      52B2     5.106578    64A1     5.148590    53B2     5.172764
      41B1     5.174582    54B2     5.203455    65A1     5.223951
      32A2     5.224510    33A2     5.239347    66A1     5.275809
      42B1     5.280729    67A1     5.441228    55B2     5.518436
      43B1     5.534464    56B2     5.602213    34A2     5.616427
      68A1     5.680369    57B2     5.705877    35A2     5.827920
      69A1     5.833495    44B1     5.873181    70A1     5.955474
      58B2     5.996735    59B2     6.050046    71A1     6.163358
      45B1     6.196157    72A1     6.538517    46B1     6.549544
      36A2     6.581366    60B2     6.608553    61B2     6.796965
      37A2     6.801193    73A1     6.867503    47B1     6.946377
      62B2     6.949991    74A1     7.117602    75A1     7.221575
      48B1     7.286198    38A2     7.421044    76A1     7.546449
      49B1     7.578628    63B2     7.634797    39A2     7.655137
      64B2     7.954477    65B2     7.994913    77A1     8.000197
      50B1     8.125635    40A2     8.175584    78A1     8.182912
      66B2     8.214724    51B1     8.366350    79A1     8.442589
      52B1     8.454805    67B2     8.461582    41A2     8.463762
      80A1     8.537390    53B1     8.575029    42A2     8.671427
      68B2     8.695331    81A1     8.706526    69B2     8.746254
      43A2     8.767010    54B1     8.777296    70B2     8.821311
      44A2     8.912301    82A1     8.960441    55B1     9.027517
      83A1     9.083847    84A1     9.201138    71B2     9.242306
      85A1     9.416444    56B1     9.469501    72B2     9.667778
      86A1     9.669922    73B2     9.716638    45A2     9.731987
      87A1     9.820997    46A2     9.839857    57B1     9.873855
      74B2     9.880701    88A1    10.001862    75B2    10.102658
      47A2    10.114035    58B1    10.115129    59B1    10.123739
      89A1    10.225802    90A1    10.294480    91A1    10.356438
      60B1    10.408835    48A2    10.417160    76B2    10.442669
      92A1    10.521324    77B2    10.522303    61B1    10.527696
      49A2    10.662475    78B2    10.754754    93A1    10.819403
      79B2    10.852117    50A2    10.874083    62B1    11.024336
      94A1    11.056507    80B2    11.198208    95A1    11.229983
      51A2    11.244882    63B1    11.244989    96A1    11.368076
      64B1    11.582925    52A2    11.794359    81B2    11.841644
      82B2    11.956758    97A1    11.968761    65B1    12.029216
      98A1    12.128423    53A2    12.131703    83B2    12.406600
      99A1    12.441208    84B2    12.750230    54A2    12.864144
      66B1    12.982659    85B2    13.154127   100A1    13.369051
      67B1    13.402257    55A2    13.672090    86B2    13.674017
      68B1    13.858491    87B2    13.884199   101A1    13.947197
      56A2    14.054189   102A1    14.117731   103A1    14.496837
      88B2    14.991591    69B1    15.635807   104A1    16.147325
      89B2    16.668233    57A2    16.699269    58A2    17.044847
     105A1    17.150739    90B2    17.331264   106A1    17.407366
      59A2    17.431676    70B1    17.448038   107A1    17.477055
      71B1    17.604415    91B2    17.617120   108A1    17.664058
      60A2    17.676550    92B2    17.710213    72B1    17.781237
      93B2    18.068326   109A1    18.075625    73B1    18.077310
      61A2    18.225594    62A2    18.470298    74B1    18.487462
     110A1    18.521853    94B2    18.614384   111A1    18.642465
      95B2    18.719545   112A1    18.864047    96B2    19.287083
      63A2    19.379222    75B1    19.463735    64A2    19.636285
     113A1    19.656620   114A1    19.670344    76B1    19.736762
      97B2    19.825532    77B1    19.944602    98B2    20.136925
      78B1    20.154966    99B2    20.332436   115A1    20.362459
     116A1    20.552136    79B1    20.619796   100B2    20.628209
      65A2    20.699148   117A1    20.735341    80B1    20.745504
      66A2    20.775776   118A1    20.912868    81B1    21.143649
     101B2    21.169662   119A1    21.173843   102B2    21.186192
      67A2    21.256063    82B1    21.297600   120A1    21.706563
     103B2    21.803317   121A1    21.826648    83B1    21.911029
     122A1    21.971580    68A2    21.999943    84B1    22.106684
      69A2    22.208405   104B2    22.212462   105B2    22.325569
      85B1    22.527279    70A2    22.538341   106B2    22.553320
     123A1    22.570215   124A1    22.880427   107B2    23.081003
      86B1    23.089848    71A2    23.187697   125A1    23.326886
     126A1    23.614584   108B2    23.762882    72A2    23.927916
     127A1    24.031291    87B1    24.051739   128A1    24.059399
     109B2    24.087316    73A2    24.255552    88B1    24.325044
     110B2    24.325955   129A1    24.330005   111B2    24.417316
      74A2    24.473294    89B1    24.596121   112B2    24.748560
     130A1    24.794447    90B1    24.901352    75A2    24.935411
     131A1    25.109940    91B1    25.132573    76A2    25.282740
     113B2    25.325512   132A1    25.621948   114B2    25.760943
     133A1    26.448386    92B1    26.555085   115B2    26.563391
     134A1    26.802367    77A2    26.868083    93B1    27.464142
     116B2    27.551207   135A1    27.565808    78A2    27.685032
     117B2    28.014342   136A1    28.409212   118B2    28.459406
      94B1    28.915006   137A1    29.055892    79A2    29.066923
     138A1    29.616070   119B2    30.191361   120B2    30.640669
      95B1    31.145304    80A2    31.387670   139A1    31.987539
     140A1    32.875591   121B2    34.337652    96B1    36.988884
     141A1    37.215783    81A2    37.224488   122B2    37.680021
     142A1    39.870873   123B2    41.062011   143A1    84.709888

    Beta Occupied:

       1A1   -15.563287     2A1    -1.045037     1B2    -0.623999
       3A1    -0.464066

    Beta Virtual:

       4A1     0.020893     2B2     0.033106     1B1     0.050463
       5A1     0.068592     3B2     0.098571     6A1     0.106751
       2B1     0.115281     4B2     0.140522     7A1     0.141961
       1A2     0.153075     8A1     0.165197     3B1     0.184016
       5B2     0.215421     6B2     0.252218     9A1     0.261242
      10A1     0.286651     7B2     0.290324    11A1     0.317206
       4B1     0.321176     2A2     0.352725    12A1     0.358388
       8B2     0.358700     5B1     0.387933    13A1     0.400748
       3A2     0.421714    14A1     0.422503     6B1     0.429687
       7B1     0.448617     9B2     0.475449    10B2     0.503213
      15A1     0.508990     4A2     0.524105    11B2     0.532756
      16A1     0.574316    12B2     0.598137    17A1     0.661948
       8B1     0.666717    13B2     0.670734     5A2     0.681308
      18A1     0.690233    19A1     0.717962    20A1     0.758816
      14B2     0.784328     9B1     0.790121    15B2     0.815216
       6A2     0.825088    21A1     0.840583    10B1     0.843998
      22A1     0.956656    16B2     0.982990    11B1     0.998737
       7A2     1.009909    23A1     1.014107    17B2     1.034542
      12B1     1.041940    13B1     1.047917    24A1     1.107597
      18B2     1.126835     8A2     1.128625    25A1     1.132543
      26A1     1.160915    19B2     1.171977     9A2     1.174842
      14B1     1.199820    20B2     1.219387    21B2     1.299369
      27A1     1.299632    10A2     1.303681    15B1     1.303726
      28A1     1.305261    29A1     1.336767    22B2     1.405975
      23B2     1.462530    30A1     1.630846    16B1     1.685834
      11A2     1.753348    17B1     1.779647    31A1     1.798703
      24B2     1.798716    32A1     1.808341    12A2     1.822205
      25B2     1.839906    18B1     1.852747    33A1     1.871852
      26B2     1.877532    27B2     1.898800    19B1     1.909593
      34A1     1.938080    13A2     1.947814    35A1     1.951143
      20B1     1.987384    14A2     2.034023    36A1     2.055374
      28B2     2.173499    37A1     2.213836    15A2     2.216844
      21B1     2.218047    38A1     2.250039    29B2     2.294012
      22B1     2.305481    39A1     2.318494    30B2     2.353749
      40A1     2.359179    16A2     2.410872    31B2     2.418295
      23B1     2.429105    41A1     2.462503    17A2     2.474168
      32B2     2.475072    18A2     2.488620    24B1     2.504299
      42A1     2.526704    33B2     2.528190    25B1     2.537643
      43A1     2.541229    44A1     2.562733    34B2     2.576677
      19A2     2.577479    26B1     2.621515    35B2     2.624516
      45A1     2.662741    36B2     2.720250    20A2     2.755572
      27B1     2.872366    46A1     2.921768    37B2     2.951521
      38B2     3.130353    47A1     3.233294    21A2     3.250383
      39B2     3.283761    48A1     3.339777    28B1     3.352451
      29B1     3.508542    49A1     3.662577    50A1     3.755350
      40B2     3.811323    30B1     3.874904    22A2     3.888403
      41B2     3.891184    51A1     3.932476    31B1     3.945215
      52A1     3.974824    23A2     4.022345    42B2     4.022693
      32B1     4.103626    53A1     4.141432    43B2     4.154519
      24A2     4.182933    44B2     4.186551    54A1     4.187604
      25A2     4.240693    33B1     4.266490    55A1     4.302619
      34B1     4.304182    26A2     4.326912    45B2     4.367927
      56A1     4.382178    35B1     4.426998    46B2     4.427945
      57A1     4.495789    58A1     4.540524    47B2     4.554123
      36B1     4.560057    27A2     4.571833    59A1     4.630442
      28A2     4.652738    37B1     4.659772    38B1     4.725778
      60A1     4.739830    48B2     4.754057    49B2     4.793372
      29A2     4.810103    61A1     4.840586    50B2     4.913530
      30A2     4.929662    62A1     4.980123    63A1     4.997066
      39B1     5.033337    51B2     5.058102    40B1     5.090455
      31A2     5.098113    52B2     5.107670    64A1     5.158791
      53B2     5.172968    41B1     5.179326    54B2     5.204711
      32A2     5.226091    65A1     5.229811    33A2     5.240505
      66A1     5.280705    42B1     5.286933    67A1     5.459248
      55B2     5.521498    43B1     5.561553    56B2     5.602322
      34A2     5.617487    68A1     5.690427    57B2     5.706621
      69A1     5.840587    35A2     5.844288    44B1     5.877054
      70A1     5.956905    58B2     5.998989    59B2     6.059836
      71A1     6.172923    45B1     6.222112    72A1     6.547913
      46B1     6.565430    36A2     6.595280    60B2     6.617696
      61B2     6.806690    37A2     6.813595    73A1     6.877472
      62B2     6.953088    47B1     6.974747    74A1     7.125392
      75A1     7.226964    48B1     7.292161    38A2     7.435971
      76A1     7.549143    49B1     7.601791    63B2     7.640008
      39A2     7.659608    64B2     7.963372    65B2     7.998028
      77A1     8.008090    50B1     8.132998    40A2     8.184813
      78A1     8.192359    66B2     8.219769    51B1     8.374581
      79A1     8.449751    52B1     8.464983    67B2     8.468742
      41A2     8.471977    80A1     8.547593    53B1     8.585613
      42A2     8.677633    68B2     8.701283    81A1     8.714375
      69B2     8.751875    43A2     8.773992    54B1     8.794090
      70B2     8.829161    44A2     8.918355    82A1     8.967689
      55B1     9.033479    83A1     9.095080    84A1     9.211364
      71B2     9.249135    85A1     9.426776    56B1     9.475694
      72B2     9.670507    86A1     9.677656    73B2     9.719348
      45A2     9.736637    87A1     9.825782    46A2     9.848075
      74B2     9.882180    57B1     9.886936    88A1    10.006831
      75B2    10.106856    58B1    10.124829    47A2    10.130662
      59B1    10.134203    89A1    10.237458    90A1    10.301932
      91A1    10.358648    48A2    10.418221    60B1    10.421534
      76B2    10.442915    77B2    10.523759    92A1    10.531952
      61B1    10.532305    49A2    10.664128    78B2    10.764391
      93A1    10.822205    79B2    10.861061    50A2    10.877400
      62B1    11.044998    94A1    11.068704    80B2    11.200246
      95A1    11.251602    51A2    11.256790    63B1    11.256983
      96A1    11.379197    64B1    11.591589    52A2    11.805656
      81B2    11.850939    82B2    11.965088    97A1    11.974581
      65B1    12.054652    98A1    12.136076    53A2    12.154741
      83B2    12.416850    99A1    12.462113    84B2    12.757350
      54A2    12.873466    66B1    12.991599    85B2    13.157892
     100A1    13.375365    67B1    13.410771    86B2    13.680671
      55A2    13.681055    68B1    13.876622    87B2    13.888738
     101A1    13.950278    56A2    14.068530   102A1    14.129907
     103A1    14.500726    88B2    14.996098    69B1    15.650227
     104A1    16.151519    89B2    16.670977    57A2    16.709342
      58A2    17.051595   105A1    17.159471    90B2    17.336774
     106A1    17.417692    59A2    17.438488    70B1    17.459738
     107A1    17.484142    71B1    17.605014    91B2    17.617688
     108A1    17.667446    60A2    17.677556    92B2    17.718083
      72B1    17.790645    93B2    18.070605    73B1    18.084328
     109A1    18.085908    61A2    18.235440    62A2    18.476751
      74B1    18.493709   110A1    18.525553    94B2    18.619158
     111A1    18.649612    95B2    18.725029   112A1    18.868613
      96B2    19.290454    63A2    19.387301    75B1    19.475599
      64A2    19.648243   113A1    19.669552   114A1    19.674918
      76B1    19.748859    97B2    19.835560    77B1    19.966227
      98B2    20.146117    78B1    20.169904    99B2    20.336307
     115A1    20.372498   116A1    20.560108    79B1    20.620310
     100B2    20.628068    65A2    20.701922   117A1    20.738047
      80B1    20.761181    66A2    20.776262   118A1    20.919688
      81B1    21.154626   101B2    21.179834   119A1    21.187808
     102B2    21.189979    67A2    21.261614    82B1    21.310873
     120A1    21.711305   103B2    21.804802   121A1    21.830024
      83B1    21.915946   122A1    21.974760    68A2    22.000362
      84B1    22.109193    69A2    22.209997   104B2    22.214157
     105B2    22.338039    85B1    22.543605    70A2    22.549750
     106B2    22.556159   123A1    22.572927   124A1    22.884027
     107B2    23.085831    86B1    23.092041    71A2    23.190718
     125A1    23.331980   126A1    23.619141   108B2    23.766954
      72A2    23.935941   127A1    24.039469    87B1    24.063976
     128A1    24.069772   109B2    24.098583    73A2    24.262010
      88B1    24.329824   110B2    24.331210   129A1    24.341733
     111B2    24.417177    74A2    24.473348    89B1    24.603264
     112B2    24.753996   130A1    24.807023    90B1    24.911628
      75A2    24.949266   131A1    25.110165    91B1    25.139077
      76A2    25.287752   113B2    25.327145   132A1    25.626705
     114B2    25.762150   133A1    26.451736    92B1    26.561512
     115B2    26.565940   134A1    26.809799    77A2    26.876099
      93B1    27.471958   116B2    27.552849   135A1    27.571782
      78A2    27.692415   117B2    28.020344   136A1    28.415277
     118B2    28.461505    94B1    28.929633   137A1    29.062508
      79A2    29.080128   138A1    29.622065   119B2    30.194738
     120B2    30.644146    95B1    31.158735    80A2    31.401907
     139A1    31.993247   140A1    32.884232   121B2    34.342365
      96B1    36.989205   141A1    37.215081    81A2    37.224967
     122B2    37.678983   142A1    39.870423   123B2    41.061466
     143A1    84.717478

    Final Occupation by Irrep:
             A1    A2    B1    B2
    DOCC [     3,    0,    0,    1 ]
    SOCC [     0,    0,    1,    0 ]

  Energy converged.

  @UHF Final Energy:   -55.59233870729683

   => Energetics <=

    Nuclear Repulsion Energy =              7.5761699881110083
    One-Electron Energy =                 -90.2076175329638659
    Two-Electron Energy =                  27.0391088375560287
    PCM Polarization Energy =               0.0000000000000000
    Total Energy =                        -55.5923387072968325

    Alert: EFP and PCM quantities not currently incorporated into SCF psivars.
  UHF NO Occupations:
  HONO-2 :    1 B2 1.9990254
  HONO-1 :    3 A1 1.9968580
  HONO-0 :    1 B1 1.0000000
  LUNO+0 :    4 A1 0.0031420
  LUNO+1 :    2 B2 0.0009746
  LUNO+2 :    5 A1 0.0007184
  LUNO+3 :    6 A1 0.0000014

Properties will be evaluated at   0.000000,   0.000000,   0.000000 Bohr

Properties computed using the SCF density matrix

  Nuclear Dipole Moment: (a.u.)
     X:     0.0000      Y:     0.0000      Z:    -1.0416

  Electronic Dipole Moment: (a.u.)
     X:     0.0000      Y:     0.0000      Z:     0.2991

  Dipole Moment: (a.u.)
     X:     0.0000      Y:     0.0000      Z:    -0.7425     Total:     0.7425

  Dipole Moment: (Debye)
     X:     0.0000      Y:     0.0000      Z:    -1.8872     Total:     1.8872

*** tstop() called on n412-050.vsc4.prov at Fri Oct 30 22:44:42 2020
Module time:
	user time   =    1575.35 seconds =      26.26 minutes
	system time =     199.75 seconds =       3.33 minutes
	total time  =       2048 seconds =      34.13 minutes
Total time:
	user time   =    1575.35 seconds =      26.26 minutes
	system time =     199.75 seconds =       3.33 minutes
	total time  =       2048 seconds =      34.13 minutes

*** tstart() called on n412-050.vsc4.prov
*** at Fri Oct 30 22:44:42 2020

	Wfn Parameters:
	--------------------
	Wavefunction         = CCSD
	Number of irreps     = 4
	Number of MOs        = 443
	Number of active MOs = 442
	AO-Basis             = NONE
	Semicanonical        = false
	Reference            = UHF
	Print Level          = 1

	IRREP	# MOs	# FZDC	# DOCC	# SOCC	# VIRT	# FZVR
	-----	-----	------	------	------	------	------
	 A1	   143	    1	    2	    0	    140	    0
	 A2	   81	    0	    0	    0	    81	    0
	 B1	   96	    0	    0	    1	    95	    0
	 B2	   123	    0	    1	    0	    122	    0
	Transforming integrals...
	IWL integrals will be deleted.
	(OO|OO)...
	Presorting SO-basis two-electron integrals.
	Sorting File: SO Ints (nn|nn) nbuckets = 1
	Transforming the one-electron integrals and constructing Fock matrices
	Starting AA/AB first half-transformation.
	Sorting AA/AB half-transformed integrals.
	Starting BB first half-transformation.
	Sorting BB half-transformed integrals.
	First half integral transformation complete.

      * MP2 total energy                      =  -55.799014920548139
      * CCSD total energy                     =  -55.811495327549302
*** Psi4 exiting successfully. Buy a developer a beer!
