                               Psi4 1.2a1.dev939

  ==> Input File <==

--------------------------------------------------------------------------
# Any line starting with the # character is a comment line

memory 32000 mb

molecule molecule {
0 1
C          0.0000000000        0.0000000000        0.0997864858
H          0.0000000000       -0.8589352290       -0.5945470372
H          0.0000000000        0.8589352290       -0.5945470372
}

set {
  reference rhf
  basis aug-cc-pv(D+d)z
  scf_type OUT_OF_CORE
  freeze_core true
}

energy('ccsd')
--------------------------------------------------------------------------

    Molecular point group: c2v

    Geometry (in Angstrom), charge = 0, multiplicity = 1:

       Center              X                  Y                   Z               Mass
    ------------   -----------------  -----------------  -----------------  -----------------
           C          0.000000000000     0.000000000000     0.099855048019    12.000000000000
           H          0.000000000000    -0.858935229000    -0.594478474981     1.007825032070
           H         -0.000000000000     0.858935229000    -0.594478474981     1.007825032070

  Charge       = 0
  Multiplicity = 1
  Basis Set: AUG-CC-PV(D+D)Z
    Blend: AUG-CC-PV(D+D)Z

    Orbital Energies (a.u.)
    -----------------------

    Doubly Occupied:

       1A1   -11.301027     2A1    -0.895514     1B2    -0.565736
       3A1    -0.395510

  @RHF Final Energy:   -38.88437944959797

   => Energetics <=

    Nuclear Repulsion Energy =              6.0574861935680770
    One-Electron Energy =                 -63.5681580591690789
    Two-Electron Energy =                  18.6262924160030430
    Total Energy =                        -38.8843794495979580
      * MP2 total energy                      =  -38.999704257319600
      * CCSD total energy                     =  -39.027507342915733
*** Psi4 exiting successfully. Buy a developer a beer!
