                               Psi4 1.2a1.dev939

  ==> Input File <==

--------------------------------------------------------------------------
# Any line starting with the # character is a comment line
memory 250000 mb
molecule molecule{
0 1
C          0.0000000000        0.0000000000        0.0997864858
H          0.0000000000       -0.8589352290       -0.5945470372
H          0.0000000000        0.8589352290       -0.5945470372

}

set {
  reference rhf
  basis aug-cc-pv(6+d)z
  scf_type OUT_OF_CORE
  freeze_core true
}

energy('ccsd')
--------------------------------------------------------------------------

    Molecular point group: c2v

    Geometry (in Angstrom), charge = 0, multiplicity = 1:

       Center              X                  Y                   Z               Mass
    ------------   -----------------  -----------------  -----------------  -----------------
           C          0.000000000000     0.000000000000     0.099855048019    12.000000000000
           H          0.000000000000    -0.858935229000    -0.594478474981     1.007825032070
           H         -0.000000000000     0.858935229000    -0.594478474981     1.007825032070

  Charge       = 0
  Multiplicity = 1
  Basis Set: AUG-CC-PV(6+D)Z
    Blend: AUG-CC-PV(6+D)Z

    Orbital Energies (a.u.)
    -----------------------

    Doubly Occupied:

       1A1   -11.291796     2A1    -0.894446     1B2    -0.566966
       3A1    -0.396611

  @RHF Final Energy:   -38.89608249072877

   => Energetics <=

    Nuclear Repulsion Energy =              6.0574861935680770
    One-Electron Energy =                 -63.6074980508715981
    Two-Electron Energy =                  18.6539293665747508
    Total Energy =                        -38.8960824907287730
      * MP2 total energy                      =  -39.049850785891792
      * CCSD total energy                     =  -39.070687920118054
*** Psi4 exiting successfully. Buy a developer a beer!
