                               Psi4 1.2a1.dev939

  ==> Input File <==

--------------------------------------------------------------------------
# Any line starting with the # character is a comment line

memory 32000 mb

molecule molecule {
0 1
C          0.0000000000        0.0000000000        0.0997864858
H          0.0000000000       -0.8589352290       -0.5945470372
H          0.0000000000        0.8589352290       -0.5945470372
}

set {
  reference rhf
    DOCC [     3,    0,    0,    1 ]

  basis aug-cc-pv(5+d)z
  scf_type OUT_OF_CORE
  freeze_core true
}

energy('ccsd')
--------------------------------------------------------------------------

    Molecular point group: c2v

    Geometry (in Angstrom), charge = 0, multiplicity = 1:

       Center              X                  Y                   Z               Mass
    ------------   -----------------  -----------------  -----------------  -----------------
           C          0.000000000000     0.000000000000     0.099855048019    12.000000000000
           H          0.000000000000    -0.858935229000    -0.594478474981     1.007825032070
           H         -0.000000000000     0.858935229000    -0.594478474981     1.007825032070

  Charge       = 0
  Multiplicity = 1
  Basis Set: AUG-CC-PV(5+D)Z
    Blend: AUG-CC-PV(5+D)Z

    Orbital Energies (a.u.)
    -----------------------

    Doubly Occupied:

       1A1   -11.291817     2A1    -0.894452     1B2    -0.566964
       3A1    -0.396606

  @RHF Final Energy:   -38.89601570882722

   => Energetics <=

    Nuclear Repulsion Energy =              6.0574861935680770
    One-Electron Energy =                 -63.6073269104328389
    Two-Electron Energy =                  18.6538250080375398
    Total Energy =                        -38.8960157088272211
      * MP2 total energy                      =  -39.048383635044004
      * CCSD total energy                     =  -39.069896135421558
*** Psi4 exiting successfully. Buy a developer a beer!
