                               Psi4 1.2a1.dev939

  ==> Input File <==

--------------------------------------------------------------------------
# Any line starting with the # character is a comment line

memory 32000 mb

molecule molecule {
0 1
Cl         0.0000000000        0.0000000000       -0.0351730808
H          0.0000000000        0.0000000000        1.2371681191
}

set {
  reference rhf

  basis aug-cc-pv(6+d)z
  scf_type OUT_OF_CORE
  freeze_core true
}

energy('ccsd')
--------------------------------------------------------------------------

    Molecular point group: c2v

    Geometry (in Angstrom), charge = 0, multiplicity = 1:

       Center              X                  Y                   Z               Mass
    ------------   -----------------  -----------------  -----------------  -----------------
          CL          0.000000000000     0.000000000000    -0.035642460396    34.968852682000
           H          0.000000000000     0.000000000000     1.236698739504     1.007825032070

  Charge       = 0
  Multiplicity = 1
  Basis Set: AUG-CC-PV(6+D)Z
    Blend: AUG-CC-PV(6+D)Z

    Orbital Energies (a.u.)
    -----------------------

    Doubly Occupied:

       1A1  -104.848746     2A1   -10.574139     3A1    -8.041302
       1B2    -8.039660     1B1    -8.039660     4A1    -1.117275
       5A1    -0.626480     2B2    -0.477082     2B1    -0.477082

  @RHF Final Energy:  -460.11282681231864

   => Energetics <=

    Nuclear Repulsion Energy =              7.0704403400102454
    One-Electron Energy =                -649.8836815052723068
    Two-Electron Energy =                 182.7004143529433975
    Total Energy =                       -460.1128268123186444
      * MP2 total energy                      = -460.349402466623701
      * CCSD total energy                     = -460.364122141347195
*** Psi4 exiting successfully. Buy a developer a beer!
