                               Psi4 1.2a1.dev939

  ==> Input File <==

--------------------------------------------------------------------------
# Any line starting with the # character is a comment line

memory 32000 mb

molecule molecule {
0 1
Cl         0.0000000000        0.0000000000       -0.0351730808
H          0.0000000000        0.0000000000        1.2371681191
}

set {
  reference rhf
  basis aug-cc-pv(D+d)z
  scf_type OUT_OF_CORE
  freeze_core true
}

energy('ccsd')
--------------------------------------------------------------------------

    Molecular point group: c2v

    Geometry (in Angstrom), charge = 0, multiplicity = 1:

       Center              X                  Y                   Z               Mass
    ------------   -----------------  -----------------  -----------------  -----------------
          CL          0.000000000000     0.000000000000    -0.035642460396    34.968852682000
           H          0.000000000000     0.000000000000     1.236698739504     1.007825032070

  Charge       = 0
  Multiplicity = 1
  Basis Set: AUG-CC-PV(D+D)Z
    Blend: AUG-CC-PV(D+D)Z

    Orbital Energies (a.u.)
    -----------------------

    Doubly Occupied:

       1A1  -104.850162     2A1   -10.575977     3A1    -8.043989
       1B2    -8.040408     1B1    -8.040408     4A1    -1.119449
       5A1    -0.628237     2B1    -0.477287     2B2    -0.477287

  @RHF Final Energy:  -460.09475658434633

   => Energetics <=

    Nuclear Repulsion Energy =              7.0704403400102454
    One-Electron Energy =                -649.8239877694784354
    Two-Electron Energy =                 182.6587908451218709
    Total Energy =                       -460.0947565843463281
      * MP2 total energy                      = -460.257164275184380
      * CCSD total energy                     = -460.275160564284079
*** Psi4 exiting successfully. Buy a developer a beer!
