                               Psi4 1.4a3.dev88

  ==> Input File <==

--------------------------------------------------------------------------
# Any line starting with the # character is a comment line
memory 650000 mb
molecule molecule{
0 1
S          0.0000000000        0.0438015885       -0.5846592572
C          0.0000000000       -0.0114958136        1.2261415687
H          0.0000000000       -1.2752662122       -0.7816543571
H          0.0000000000        1.0231583645        1.5597948597
H          0.8921706266       -0.5020602051        1.6036026281
H         -0.8921706266       -0.5020602051        1.6036026281
}

set {
  reference rhf
  basis aug-cc-pV(5+d)Z
  scf_type OUT_OF_CORE
  freeze_core true
}

energy('ccsd(t)')
--------------------------------------------------------------------------

    Molecular point group: cs

    Geometry (in Angstrom), charge = 0, multiplicity = 1:

       Center              X                  Y                   Z               Mass
    ------------   -----------------  -----------------  -----------------  -----------------
         S           -0.043876177899     0.585439674434     0.000000000000    31.972071174400
         C            0.011421224201    -1.225361151466     0.000000000000    12.000000000000
         H            1.275191622801     0.782434774334     0.000000000000     1.007825032230
         H           -1.023232953899    -1.559014442466     0.000000000000     1.007825032230
         H            0.501985615701    -1.602822210866     0.892170626600     1.007825032230
         H            0.501985615701    -1.602822210866    -0.892170626600     1.007825032230

  Charge       = 0
  Multiplicity = 1
  Basis Set: AUG-CC-PV(5+D)Z
    Blend: AUG-CC-PV(5+D)Z

    Orbital Energies [Eh]
    ---------------------

    Doubly Occupied:

       1Ap   -91.950428     2Ap   -11.255456     3Ap    -8.952395
       4Ap    -6.633966     5Ap    -6.633127     1App   -6.632347
       6Ap    -1.038738     7Ap    -0.866879     8Ap    -0.609561
       2App   -0.593737     9Ap    -0.529156    10Ap    -0.460502
       3App   -0.357062

  @RHF Final Energy:  -437.76674765978981

   => Energetics <=

    Nuclear Repulsion Energy =             56.5243256687773794
    One-Electron Energy =                -715.5554411491076507
    Two-Electron Energy =                 221.2643678205405138
    Total Energy =                       -437.7667476597897576

  Dipole Moment: [D]
     X:     0.7898      Y:    -1.4535      Z:     0.0000     Total:     1.6542

      * MP2 total energy                      = -438.169793943684283
      * CCSD total energy                     = -438.194938179704195
      * CCSD(T) total energy                  = -438.213523539891810
*** Psi4 exiting successfully. Buy a developer a beer!
