                               Psi4 1.4a3.dev88

  ==> Input File <==

--------------------------------------------------------------------------
# Any line starting with the # character is a comment line
memory 650000 mb
molecule molecule{
0 1
S          0.0000000000        0.0438015885       -0.5846592572
C          0.0000000000       -0.0114958136        1.2261415687
H          0.0000000000       -1.2752662122       -0.7816543571
H          0.0000000000        1.0231583645        1.5597948597
H          0.8921706266       -0.5020602051        1.6036026281
H         -0.8921706266       -0.5020602051        1.6036026281
}

set {
  reference rhf
  basis aug-cc-pV(6+d)Z
  scf_type OUT_OF_CORE
  freeze_core true
}

energy('ccsd(t)')
--------------------------------------------------------------------------

    Molecular point group: cs

    Geometry (in Angstrom), charge = 0, multiplicity = 1:

       Center              X                  Y                   Z               Mass
    ------------   -----------------  -----------------  -----------------  -----------------
         S           -0.043876177899     0.585439674434     0.000000000000    31.972071174400
         C            0.011421224201    -1.225361151466     0.000000000000    12.000000000000
         H            1.275191622801     0.782434774334     0.000000000000     1.007825032230
         H           -1.023232953899    -1.559014442466     0.000000000000     1.007825032230
         H            0.501985615701    -1.602822210866     0.892170626600     1.007825032230
         H            0.501985615701    -1.602822210866    -0.892170626600     1.007825032230

  Charge       = 0
  Multiplicity = 1
  Basis Set: AUG-CC-PV(6+D)Z
    Blend: AUG-CC-PV(6+D)Z

    Orbital Energies [Eh]
    ---------------------

    Doubly Occupied:

       1Ap   -91.950408     2Ap   -11.255416     3Ap    -8.952321
       4Ap    -6.633849     5Ap    -6.633066     1App   -6.632387
       6Ap    -1.038709     7Ap    -0.866861     8Ap    -0.609552
       2App   -0.593730     9Ap    -0.529155    10Ap    -0.460511
       3App   -0.357078

  @RHF Final Energy:  -437.76701185355569

   => Energetics <=

    Nuclear Repulsion Energy =             56.5243256687773794
    One-Electron Energy =                -715.5565892431857264
    Two-Electron Energy =                 221.2652517208526888
    Total Energy =                       -437.7670118535556867

  Dipole Moment: [D]
     X:     0.7893      Y:    -1.4531      Z:     0.0000     Total:     1.6536

      * MP2 total energy                      = -438.174428109819473
      * CCSD total energy                     = -438.197640754629560
      * CCSD(T) total energy                  = -438.216413727106954
*** Psi4 exiting successfully. Buy a developer a beer!
