                               Psi4 1.4a3.dev88

  ==> Input File <==

--------------------------------------------------------------------------
# Any line starting with the # character is a comment line
memory 250000 mb
molecule molecule{
0 1
S          0.0000000000        0.0438015885       -0.5846592572
C          0.0000000000       -0.0114958136        1.2261415687
H          0.0000000000       -1.2752662122       -0.7816543571
H          0.0000000000        1.0231583645        1.5597948597
H          0.8921706266       -0.5020602051        1.6036026281
H         -0.8921706266       -0.5020602051        1.6036026281
}

set {
  reference rhf
  basis aug-cc-pV(t+d)Z
  scf_type OUT_OF_CORE
  freeze_core true
}

energy('ccsd(t)')
--------------------------------------------------------------------------

    Molecular point group: cs

    Geometry (in Angstrom), charge = 0, multiplicity = 1:

       Center              X                  Y                   Z               Mass
    ------------   -----------------  -----------------  -----------------  -----------------
         S           -0.043876177899     0.585439674434     0.000000000000    31.972071174400
         C            0.011421224201    -1.225361151466     0.000000000000    12.000000000000
         H            1.275191622801     0.782434774334     0.000000000000     1.007825032230
         H           -1.023232953899    -1.559014442466     0.000000000000     1.007825032230
         H            0.501985615701    -1.602822210866     0.892170626600     1.007825032230
         H            0.501985615701    -1.602822210866    -0.892170626600     1.007825032230

  Charge       = 0
  Multiplicity = 1
  Basis Set: AUG-CC-PV(T+D)Z
    Blend: AUG-CC-PV(T+D)Z

    Orbital Energies [Eh]
    ---------------------

    Doubly Occupied:

       1Ap   -91.952026     2Ap   -11.256957     3Ap    -8.953142
       4Ap    -6.634621     5Ap    -6.633607     1App   -6.632497
       6Ap    -1.039083     7Ap    -0.867059     8Ap    -0.609518
       2App   -0.593630     9Ap    -0.529103    10Ap    -0.460422
       3App   -0.356947

  @RHF Final Energy:  -437.75983853004192

   => Energetics <=

    Nuclear Repulsion Energy =             56.5243256687773794
    One-Electron Energy =                -715.5311046108081428
    Two-Electron Energy =                 221.2469404119889020
    Total Energy =                       -437.7598385300418613

  Dipole Moment: [D]
     X:     0.7933      Y:    -1.4576      Z:     0.0000     Total:     1.6595

      * MP2 total energy                      = -438.130514559618746
      * CCSD total energy                     = -438.163792472611874
      * CCSD(T) total energy                  = -438.180420878061284
*** Psi4 exiting successfully. Buy a developer a beer!
