                               Psi4 1.2a1.dev938

  ==> Input File <==

--------------------------------------------------------------------------
# Any line starting with the # character is a comment line
memory 250000 mb
molecule molecule{
1 2
C          0.0000000000        0.0000000000        0.0000000000
H          1.0541545585        0.0000000000       -0.3673483848
H          0.0000000000       -1.0541545585        0.3673483848
H         -1.0541545585        0.0000000000       -0.3673483848
H          0.0000000000        1.0541545585        0.3673483848
}

set {
  reference uhf
  basis aug-cc-pv(d+d)z
  scf_type OUT_OF_CORE
  freeze_core true
}

energy('ccsd')
--------------------------------------------------------------------------

    Molecular point group: c2v

    Geometry (in Angstrom), charge = 1, multiplicity = 2:

       Center              X                  Y                   Z               Mass
    ------------   -----------------  -----------------  -----------------  -----------------
           C          0.000000000000    -0.000000000000    -0.000000000000    12.000000000000
           H          1.054154558500     0.000000000000    -0.367348384800     1.007825032070
           H          0.000000000000    -1.054154558500     0.367348384800     1.007825032070
           H         -1.054154558500    -0.000000000000    -0.367348384800     1.007825032070
           H         -0.000000000000     1.054154558500     0.367348384800     1.007825032070

  Charge       = 1
  Multiplicity = 2
  Basis Set: AUG-CC-PV(D+D)Z
    Blend: AUG-CC-PV(D+D)Z

    Orbital Energies (a.u.)
    -----------------------

    Alpha Occupied:

       1A1   -11.606173     2A1    -1.333568     1B2    -0.955274
       1B1    -0.955274     3A1    -0.825987

    Alpha Virtual:

       4A1    -0.133708     5A1    -0.111218     2B2    -0.087341
       2B1    -0.087341     6A1    -0.074203     7A1    -0.007945
       3B2    -0.006974     3B1    -0.006974     8A1     0.003279
       1A2     0.041115     9A1     0.045496     4B2     0.054976
       4B1     0.054976    10A1     0.182425    11A1     0.219847
       5B1     0.223526     5B2     0.223526     6B1     0.255355
       6B2     0.255355    12A1     0.296356     2A2     0.315433
      13A1     0.319802     7B1     0.338956     7B2     0.338956
      14A1     0.348483    15A1     0.405619     3A2     0.429076
       8B1     0.455032     8B2     0.455032     9B1     0.668709
       9B2     0.668709    16A1     0.811423    17A1     0.822246
      18A1     1.032732    10B1     1.118741    10B2     1.118741
      19A1     1.307919    11B1     1.354974    11B2     1.354974
       4A2     1.458401    20A1     1.598771     5A2     1.674589
      21A1     1.709441    12B1     1.841845    12B2     1.841845
      22A1     1.907841    13B1     1.988168    13B2     1.988168
      23A1     2.021832    14B1     2.437436    14B2     2.437436
       6A2     2.506096    24A1     2.608334    25A1     2.916566

    Beta Occupied:

       1A1   -11.593740     2A1    -1.240845     1B2    -0.908635
       1B1    -0.908635

    Beta Virtual:

       3A1    -0.335120     4A1    -0.128564     5A1    -0.092079
       2B2    -0.086468     2B1    -0.086468     6A1    -0.061417
       3B2    -0.002746     3B1    -0.002746     7A1    -0.001905
       8A1     0.026033     1A2     0.042069     9A1     0.067033
       4B2     0.072073     4B1     0.072073    10A1     0.205437
       5B1     0.229967     5B2     0.229967    11A1     0.232085
       6B1     0.260868     6B2     0.260868    12A1     0.306867
       2A2     0.319572    13A1     0.327881     7B1     0.349069
       7B2     0.349069    14A1     0.365020     3A2     0.431821
      15A1     0.433021     8B1     0.461626     8B2     0.461626
       9B1     0.685082     9B2     0.685082    16A1     0.850088
      17A1     0.861697    18A1     1.054547    10B1     1.145523
      10B2     1.145523    19A1     1.355038    11B1     1.382075
      11B2     1.382075     4A2     1.463625    20A1     1.615415
       5A2     1.693748    21A1     1.728798    12B1     1.859285
      12B2     1.859285    22A1     1.928582    13B1     2.011724
      13B2     2.011724    23A1     2.051860    14B1     2.454803
      14B2     2.454803     6A2     2.515216    24A1     2.632184
      25A1     2.936351

    Final Occupation by Irrep:
             A1    A2    B1    B2
    DOCC [     2,    0,    1,    1 ]
    SOCC [     1,    0,    0,    0 ]

  Energy converged.

  @UHF Final Energy:   -39.76215285894487

   => Energetics <=

    Nuclear Repulsion Energy =             13.1523973306036890
    One-Electron Energy =                 -75.5009697607709569
    Two-Electron Energy =                  22.5864195712224003
    PCM Polarization Energy =               0.0000000000000000
    Total Energy =                        -39.7621528589448658

    Alert: EFP and PCM quantities not currently incorporated into SCF psivars.
  UHF NO Occupations:
  HONO-2 :    1 B1 1.9987651
  HONO-1 :    2 A1 1.9986085
  HONO-0 :    3 A1 1.0000000
  LUNO+0 :    4 A1 0.0013915
  LUNO+1 :    2 B2 0.0012349
  LUNO+2 :    2 B1 0.0012349
  LUNO+3 :    5 A1 0.0000004

Properties will be evaluated at   0.000000,   0.000000,   0.000000 Bohr

Properties computed using the SCF density matrix

  Nuclear Dipole Moment: (a.u.)
     X:    -0.0000      Y:     0.0000      Z:     0.0000

  Electronic Dipole Moment: (a.u.)
     X:     0.0000      Y:     0.0000      Z:     0.0000

  Dipole Moment: (a.u.)
     X:    -0.0000      Y:     0.0000      Z:     0.0000     Total:     0.0000

  Dipole Moment: (Debye)
     X:    -0.0000      Y:     0.0000      Z:     0.0000     Total:     0.0000

*** tstop() called on cqc05 at Thu Aug 20 19:53:46 2020
Module time:
	user time   =       0.87 seconds =       0.01 minutes
	system time =       0.01 seconds =       0.00 minutes
	total time  =          0 seconds =       0.00 minutes
Total time:
	user time   =       0.87 seconds =       0.01 minutes
	system time =       0.01 seconds =       0.00 minutes
	total time  =          0 seconds =       0.00 minutes

*** tstart() called on cqc05
*** at Thu Aug 20 19:53:46 2020

	Wfn Parameters:
	--------------------
	Wavefunction         = CCSD
	Number of irreps     = 4
	Number of MOs        = 59
	Number of active MOs = 58
	AO-Basis             = NONE
	Semicanonical        = false
	Reference            = UHF
	Print Level          = 1

	IRREP	# MOs	# FZDC	# DOCC	# SOCC	# VIRT	# FZVR
	-----	-----	------	------	------	------	------
	 A1	   25	    1	    1	    1	    22	    0
	 A2	   6	    0	    0	    0	    6	    0
	 B1	   14	    0	    1	    0	    13	    0
	 B2	   14	    0	    1	    0	    13	    0
	Transforming integrals...
	IWL integrals will be deleted.
	(OO|OO)...
	Presorting SO-basis two-electron integrals.
	Sorting File: SO Ints (nn|nn) nbuckets = 1
	Transforming the one-electron integrals and constructing Fock matrices
	Starting AA/AB first half-transformation.
	Sorting AA/AB half-transformed integrals.
	Starting BB first half-transformation.
	Sorting BB half-transformed integrals.
	First half integral transformation complete.
	Starting AA second half-transformation.
	Starting AB second half-transformation.
	Starting BB second half-transformation.
	Two-electron integral transformation complete.
	(OO|OV)...
	Starting AA second half-transformation.
	Starting AB second half-transformation.
	Starting BB second half-transformation.
	Two-electron integral transformation complete.
	(OO|VV)...
	Starting AA second half-transformation.
	Starting AB second half-transformation.
	Starting BB second half-transformation.
	Two-electron integral transformation complete.
	(OV|OO)...
	Starting AA/AB first half-transformation.
	Sorting AA/AB half-transformed integrals.
	Starting BB first half-transformation.
	Sorting BB half-transformed integrals.
	First half integral transformation complete.
	Starting AA second half-transformation.
	Starting AB second half-transformation.
	Starting BB second half-transformation.
	Two-electron integral transformation complete.
	(OV|OV)...
	Starting AA second half-transformation.
	Starting AB second half-transformation.
	Starting BB second half-transformation.
	Two-electron integral transformation complete.
	(OV|VV)...
	Starting AA second half-transformation.
	Starting AB second half-transformation.
	Starting BB second half-transformation.
	Two-electron integral transformation complete.
	(VV|OO)...
	Starting AA/AB first half-transformation.
	Sorting AA/AB half-transformed integrals.
	Starting BB first half-transformation.
	Sorting BB half-transformed integrals.
	First half integral transformation complete.
	Starting AA second half-transformation.
	Starting AB second half-transformation.
	Starting BB second half-transformation.
	Two-electron integral transformation complete.
	(VV|OV)...
	Starting AA second half-transformation.
	Starting AB second half-transformation.
	Starting BB second half-transformation.
	Two-electron integral transformation complete.
	(VV|VV)...
	Starting AA second half-transformation.
	Starting AB second half-transformation.
	Starting BB second half-transformation.
	Two-electron integral transformation complete.
	Frozen core energy     =    -36.15073921613070

	Size of irrep 0 of <AB|CD> integrals:      0.162 (MW) /      1.293 (MB)
	Size of irrep 1 of <AB|CD> integrals:      0.091 (MW) /      0.725 (MB)
	Size of irrep 2 of <AB|CD> integrals:      0.132 (MW) /      1.060 (MB)
	Size of irrep 3 of <AB|CD> integrals:      0.132 (MW) /      1.060 (MB)
	Total:                                     0.517 (MW) /      4.138 (MB)

	Size of irrep 0 of <ab|cd> integrals:      0.180 (MW) /      1.438 (MB)
	Size of irrep 1 of <ab|cd> integrals:      0.094 (MW) /      0.754 (MB)
	Size of irrep 2 of <ab|cd> integrals:      0.142 (MW) /      1.137 (MB)
	Size of irrep 3 of <ab|cd> integrals:      0.142 (MW) /      1.137 (MB)
	Total:                                     0.558 (MW) /      4.466 (MB)

	Size of irrep 0 of <Ab|Cd> integrals:      0.774 (MW) /      6.195 (MB)
	Size of irrep 1 of <Ab|Cd> integrals:      0.370 (MW) /      2.957 (MB)
	Size of irrep 2 of <Ab|Cd> integrals:      0.549 (MW) /      4.393 (MB)
	Size of irrep 3 of <Ab|Cd> integrals:      0.549 (MW) /      4.393 (MB)
	Total:                                     2.242 (MW) /     17.938 (MB)

	Size of irrep 0 of <IA|BC> integrals:      0.060 (MW) /      0.480 (MB)
	Size of irrep 1 of <IA|BC> integrals:      0.023 (MW) /      0.183 (MB)
	Size of irrep 2 of <IA|BC> integrals:      0.039 (MW) /      0.314 (MB)
	Size of irrep 3 of <IA|BC> integrals:      0.039 (MW) /      0.314 (MB)
	Total:                                     0.162 (MW) /      1.292 (MB)

	Size of irrep 0 of <ia|bc> integrals:      0.044 (MW) /      0.354 (MB)
	Size of irrep 1 of <ia|bc> integrals:      0.020 (MW) /      0.157 (MB)
	Size of irrep 2 of <ia|bc> integrals:      0.032 (MW) /      0.253 (MB)
	Size of irrep 3 of <ia|bc> integrals:      0.032 (MW) /      0.253 (MB)
	Total:                                     0.127 (MW) /      1.018 (MB)

	Size of irrep 0 of <Ia|Bc> integrals:      0.063 (MW) /      0.507 (MB)
	Size of irrep 1 of <Ia|Bc> integrals:      0.023 (MW) /      0.185 (MB)
	Size of irrep 2 of <Ia|Bc> integrals:      0.041 (MW) /      0.326 (MB)
	Size of irrep 3 of <Ia|Bc> integrals:      0.041 (MW) /      0.326 (MB)
	Total:                                     0.168 (MW) /      1.344 (MB)

	Size of irrep 0 of <iA|bC> integrals:      0.042 (MW) /      0.338 (MB)
	Size of irrep 1 of <iA|bC> integrals:      0.019 (MW) /      0.156 (MB)
	Size of irrep 2 of <iA|bC> integrals:      0.030 (MW) /      0.243 (MB)
	Size of irrep 3 of <iA|bC> integrals:      0.030 (MW) /      0.243 (MB)
	Total:                                     0.122 (MW) /      0.980 (MB)

	Size of irrep 0 of tIjAb amplitudes:       0.004 (MW) /      0.028 (MB)
	Size of irrep 1 of tIjAb amplitudes:       0.001 (MW) /      0.010 (MB)
	Size of irrep 2 of tIjAb amplitudes:       0.002 (MW) /      0.018 (MB)
	Size of irrep 3 of tIjAb amplitudes:       0.002 (MW) /      0.018 (MB)
	Total:                                     0.009 (MW) /      0.073 (MB)

	Nuclear Rep. energy          =     13.15239733060369
	SCF energy                   =    -39.76215285894487
	One-electron energy          =    -26.39940394648076
	Two-electron (AA) energy     =      2.44637981186394
	Two-electron (BB) energy     =      1.20184489494430
	Two-electron (AB) energy     =      5.98736826625460
	Two-electron energy          =      9.63559297306285
	Reference energy             =    -39.76215285894492

*** tstop() called on cqc05 at Thu Aug 20 19:53:47 2020
Module time:
	user time   =       0.30 seconds =       0.01 minutes
	system time =       0.18 seconds =       0.00 minutes
	total time  =          1 seconds =       0.02 minutes
Total time:
	user time   =       1.17 seconds =       0.02 minutes
	system time =       0.19 seconds =       0.00 minutes
	total time  =          1 seconds =       0.02 minutes

*** tstart() called on cqc05
*** at Thu Aug 20 19:53:47 2020

            **************************
            *                        *
            *        CCENERGY        *
            *                        *
            **************************

    Nuclear Rep. energy (wfn)     =   13.152397330603689
    SCF energy          (wfn)     =  -39.762152858944866
    Reference energy    (file100) =  -39.762152858944923

    Input parameters:
    -----------------
    Wave function   =     CCSD
    Reference wfn   =     UHF
    Brueckner       =     No
    Memory (Mbytes) =     250000.0
    Maxiter         =     50
    R_Convergence   =     1.0e-07
    E_Convergence   =     1.0e-06
    Restart         =     Yes
    DIIS            =     Yes
    AO Basis        =     NONE
    ABCD            =     NEW
    Cache Level     =     2
    Cache Type      =     LRU
    Print Level     =     1
    Num. of threads =     4
    # Amps to Print =     10
    Print MP2 Amps? =     No
    Analyze T2 Amps =     No
    Print Pair Ener =     No
    Local CC        =     No
    SCS-MP2         =     False
    SCSN-MP2        =     False
    SCS-CCSD        =     False

MP2 correlation energy -0.1379560281163204
                Solving CC Amplitude Equations
                ------------------------------
  Iter             Energy              RMS        T1Diag      D1Diag    New D1Diag    D2Diag
  ----     ---------------------    ---------   ----------  ----------  ----------   --------
     0        -0.137956028116320    0.000e+00    0.000000    0.000000    0.000000    0.000000
     1        -0.155752291355204    4.218e-02    0.006498    0.000000    0.000000    0.000000
     2        -0.161495488687082    1.506e-02    0.010180    0.000000    0.000000    0.000000
     3        -0.161777377284895    3.687e-03    0.011325    0.000000    0.000000    0.000000
     4        -0.161775629251984    1.155e-03    0.011647    0.000000    0.000000    0.000000
     5        -0.161769378244454    4.422e-04    0.011779    0.000000    0.000000    0.000000
     6        -0.161770183012708    1.354e-04    0.011812    0.000000    0.000000    0.000000
     7        -0.161770151648268    3.416e-05    0.011818    0.000000    0.000000    0.000000
     8        -0.161769914222153    9.118e-06    0.011819    0.000000    0.000000    0.000000
     9        -0.161769911116194    2.283e-06    0.011819    0.000000    0.000000    0.000000
    10        -0.161769927826379    6.308e-07    0.011819    0.000000    0.000000    0.000000
    11        -0.161769925317705    1.599e-07    0.011819    0.000000    0.000000    0.000000
    12        -0.161769922923064    5.405e-08    0.011819    0.000000    0.000000    0.000000
    12        -0.161769922923064    5.405e-08    0.011819    0.000000    0.000000    0.000000

    Iterations converged.

    CCSD corr. energy   =   -0.161769922923064
    PPL corr. energy    =    0.039533216237489
    OS PPL corr. energy =    0.034978800835416
    SS PPL corr. energy =    0.004554415402073
    Largest TIA Amplitudes:
              1   1         0.0134436913
              2  30         0.0059372962
              3  43         0.0059372962
              1  10         0.0053105960
              1   4         0.0052310155
              2  31        -0.0049621429
              3  44        -0.0049621429
              2  29        -0.0048731185
              3  42        -0.0048731185
              1  18         0.0047312099

    Largest Tia Amplitudes:
              1  31        -0.0078654195
              2  44        -0.0078654195
              0  16         0.0049794805
              1  36        -0.0043054417
              2  49        -0.0043054417
              0  12         0.0042696440
              1  37         0.0040953759
              2  50         0.0040953759
              0  20        -0.0039860464
              0   6         0.0037389930

    Largest TIJAB Amplitudes:
      3   2  24   1        -0.0183790461
      3   2  22   1        -0.0163330763
      3   2  25   1        -0.0109609643
      2   1  30   6        -0.0102544633
      3   1  43   6        -0.0102544633
      2   1  35  12        -0.0093408450
      3   1  48  12        -0.0093408450
      3   2  24   4        -0.0091458854
      2   1  30   5         0.0090163826
      3   1  43   5        -0.0090163826

    Largest Tijab Amplitudes:
      2   1  25   0         0.0195969529
      2   1  23   0         0.0180371885
      2   1  25   2        -0.0149498515
      2   1  23   2        -0.0132627089
      1   0  31   0         0.0126616660
      2   0  44   0        -0.0126616660
      2   1  26   0         0.0115651082
      2   1  25   5        -0.0093598683
      2   1  26   2        -0.0090413142
      2   1  25   7         0.0083271661

    Largest TIjAb Amplitudes:
      2   1   1   0         0.0422268423
      3   2   1   0         0.0422268423
      2   1   1   2        -0.0314937794
      3   2   1   2        -0.0314937794
      2   1  35  36        -0.0302015217
      3   2  48  49        -0.0302015217
      2   1  30  31        -0.0281440753
      3   2  43  44        -0.0281440753
      2   1  30  36        -0.0251855112
      3   2  43  49        -0.0251855112

    SCF energy       (wfn)                    =  -39.762152858944866
    Reference energy (file100)                =  -39.762152858944923

    Opposite-spin MP2 correlation energy      =   -0.112324445432208
    Same-spin MP2 correlation energy          =   -0.025631582684112
    MP2 correlation energy                    =   -0.137956028116320
      * MP2 total energy                      =  -39.900108887061243
      * CCSD total energy                     =  -39.923922781867986
*** Psi4 exiting successfully. Buy a developer a beer!
