                               Psi4 1.2a1.dev938

  ==> Input File <==

--------------------------------------------------------------------------
# Any line starting with the # character is a comment line
memory 250000 mb
molecule molecule{
-1 2
P          0.0000000000        0.0000000000        0.0450645625
H          0.0000000000        0.0000000000       -1.3848234457
}

set {
  reference uhf
  basis aug-cc-pv(t+d)z
  scf_type OUT_OF_CORE
  freeze_core true
}

energy('ccsd')
--------------------------------------------------------------------------

    Molecular point group: c2v

    Geometry (in Angstrom), charge = -1, multiplicity = 2:

       Center              X                  Y                   Z               Mass
    ------------   -----------------  -----------------  -----------------  -----------------
           P          0.000000000000     0.000000000000     0.045059582034    30.973761629000
           H          0.000000000000     0.000000000000    -1.384828426166     1.007825032070

  Charge       = -1
  Multiplicity = 2
  Basis Set: AUG-CC-PV(T+D)Z
    Blend: AUG-CC-PV(T+D)Z

    Orbital Energies (a.u.)
    -----------------------

    Alpha Occupied:

       1A1   -79.689276     2A1    -7.230345     1B2    -5.133587
       3A1    -5.120882     1B1    -5.120617     4A1    -0.550685
       5A1    -0.214299     2B2    -0.115267     2B1    -0.057410

    Alpha Virtual:

       6A1     0.152806     7A1     0.222154     3B2     0.231055
       3B1     0.244040     8A1     0.305083     9A1     0.348262
       4B2     0.387352     1A2     0.397097    10A1     0.398981
       4B1     0.400907    11A1     0.473773     5B2     0.502477
       5B1     0.511021    12A1     0.526648    13A1     0.713119
       6B2     0.722676     6B1     0.755695    14A1     0.780635
       7B2     0.790127     2A2     0.814774    15A1     0.818455
       7B1     0.819388    16A1     0.872010     3A2     0.872727
       8B2     0.876683     8B1     0.876795    17A1     0.937445
       9B2     0.972183     9B1     0.989553    18A1     1.092683
      19A1     1.167847    10B2     1.249946     4A2     1.257944
      20A1     1.258982    10B1     1.259745    21A1     1.516662
      11B2     1.729857    11B1     1.747714    22A1     1.819320
      12B2     1.851081     5A2     1.864362    23A1     1.866734
      12B1     1.876255    24A1     2.116952     6A2     2.139743
      13B2     2.143983    13B1     2.144064    25A1     2.148930
      14B2     2.302689    14B1     2.332515    26A1     2.433547
      15B2     2.698404    15B1     2.727608    27A1     2.984987
      28A1     3.464496     7A2     4.204337    29A1     4.204380
      16B2     4.425686    16B1     4.434299    30A1     4.548927
      17B2     4.663212    17B1     4.670090    31A1     4.764813
      32A1     5.530338     8A2     6.483912    33A1     6.484072
      18B2     6.551288    18B1     6.565624    34A1     7.633688

    Beta Occupied:

       1A1   -79.683055     2A1    -7.223127     3A1    -5.117760
       1B1    -5.115431     1B2    -5.105245     4A1    -0.479700
       5A1    -0.194377     2B1    -0.033633

    Beta Virtual:

       6A1     0.153200     2B2     0.202377     7A1     0.223194
       3B1     0.247860     8A1     0.310918     3B2     0.317050
       9A1     0.355691     4B1     0.399662     4B2     0.407267
       1A2     0.415703    10A1     0.415888    11A1     0.477475
       5B2     0.510064     5B1     0.511407    12A1     0.539758
      13A1     0.719811     6B1     0.765429     6B2     0.787595
      14A1     0.791737     7B1     0.823680     7B2     0.839961
       2A2     0.868795    15A1     0.869434    16A1     0.884255
       3A2     0.884293     8B1     0.893225     8B2     0.893292
      17A1     0.943088     9B2     0.985830     9B1     0.989391
      18A1     1.106530    19A1     1.174503    10B2     1.255866
      10B1     1.260173     4A2     1.263212    20A1     1.263366
      21A1     1.528124    11B2     1.745758    11B1     1.750147
      22A1     1.826207    12B2     1.874324    12B1     1.879375
       5A2     1.889473    23A1     1.889496    24A1     2.132270
       6A2     2.162027    25A1     2.162187    13B2     2.177610
      13B1     2.177612    14B2     2.331749    14B1     2.336203
      26A1     2.439212    15B1     2.734055    15B2     2.736241
      27A1     2.988482    28A1     3.466389     7A2     4.205559
      29A1     4.205567    16B2     4.429328    16B1     4.434144
      30A1     4.556996    17B2     4.664068    17B1     4.668807
      31A1     4.766027    32A1     5.533530     8A2     6.491653
      33A1     6.491696    18B2     6.559007    18B1     6.567103
      34A1     7.637665

    Final Occupation by Irrep:
             A1    A2    B1    B2
    DOCC [     5,    0,    2,    1 ]
    SOCC [     0,    0,    0,    1 ]

  Energy converged.

  @UHF Final Energy:  -341.29297396564095

   => Energetics <=

    Nuclear Repulsion Energy =              5.5512446312786707
    One-Electron Energy =                -487.5037425105771263
    Two-Electron Energy =                 140.6595239136574946
    Total Energy =                       -341.2929739656409538

  UHF NO Occupations:
  HONO-2 :    2 B1 1.9972764
  HONO-1 :    5 A1 1.9921052
  HONO-0 :    2 B2 1.0000000
  LUNO+0 :    6 A1 0.0078948
  LUNO+1 :    3 B1 0.0027236
  LUNO+2 :    7 A1 0.0003240
  LUNO+3 :    3 B2 0.0000024

Properties will be evaluated at   0.000000,   0.000000,   0.000000 Bohr

Properties computed using the SCF density matrix

  Nuclear Dipole Moment: (a.u.)
     X:     0.0000      Y:     0.0000      Z:    -1.3397

  Electronic Dipole Moment: (a.u.)
     X:     0.0000      Y:     0.0000      Z:     1.2293

  Dipole Moment: (a.u.)
     X:     0.0000      Y:     0.0000      Z:    -0.1104     Total:     0.1104

  Dipole Moment: (Debye)
     X:     0.0000      Y:     0.0000      Z:    -0.2806     Total:     0.2806

*** tstop() called on cqc05 at Thu Aug 20 20:04:15 2020
Module time:
	user time   =       1.75 seconds =       0.03 minutes
	system time =       0.08 seconds =       0.00 minutes
	total time  =          1 seconds =       0.02 minutes
Total time:
	user time   =       1.75 seconds =       0.03 minutes
	system time =       0.08 seconds =       0.00 minutes
	total time  =          1 seconds =       0.02 minutes

*** tstart() called on cqc05
*** at Thu Aug 20 20:04:15 2020

	Wfn Parameters:
	--------------------
	Wavefunction         = CCSD
	Number of irreps     = 4
	Number of MOs        = 78
	Number of active MOs = 73
	AO-Basis             = NONE
	Semicanonical        = false
	Reference            = UHF
	Print Level          = 1

	IRREP	# MOs	# FZDC	# DOCC	# SOCC	# VIRT	# FZVR
	-----	-----	------	------	------	------	------
	 A1	   34	    3	    2	    0	    29	    0
	 A2	   8	    0	    0	    0	    8	    0
	 B1	   18	    1	    1	    0	    16	    0
	 B2	   18	    1	    0	    1	    16	    0
	Transforming integrals...
	IWL integrals will be deleted.
	(OO|OO)...
	Presorting SO-basis two-electron integrals.
	Sorting File: SO Ints (nn|nn) nbuckets = 1
	Transforming the one-electron integrals and constructing Fock matrices
	Starting AA/AB first half-transformation.
	Sorting AA/AB half-transformed integrals.
	Starting BB first half-transformation.
	Sorting BB half-transformed integrals.
	First half integral transformation complete.
	Starting AA second half-transformation.
	Starting AB second half-transformation.
	Starting BB second half-transformation.
	Two-electron integral transformation complete.
	(OO|OV)...
	Starting AA second half-transformation.
	Starting AB second half-transformation.
	Starting BB second half-transformation.
	Two-electron integral transformation complete.
	(OO|VV)...
	Starting AA second half-transformation.
	Starting AB second half-transformation.
	Starting BB second half-transformation.
	Two-electron integral transformation complete.
	(OV|OO)...
	Starting AA/AB first half-transformation.
	Sorting AA/AB half-transformed integrals.
	Starting BB first half-transformation.
	Sorting BB half-transformed integrals.
	First half integral transformation complete.
	Starting AA second half-transformation.
	Starting AB second half-transformation.
	Starting BB second half-transformation.
	Two-electron integral transformation complete.
	(OV|OV)...
	Starting AA second half-transformation.
	Starting AB second half-transformation.
	Starting BB second half-transformation.
	Two-electron integral transformation complete.
	(OV|VV)...
	Starting AA second half-transformation.
	Starting AB second half-transformation.
	Starting BB second half-transformation.
	Two-electron integral transformation complete.
	(VV|OO)...
	Starting AA/AB first half-transformation.
	Sorting AA/AB half-transformed integrals.
	Starting BB first half-transformation.
	Sorting BB half-transformed integrals.
	First half integral transformation complete.
	Starting AA second half-transformation.
	Starting AB second half-transformation.
	Starting BB second half-transformation.
	Two-electron integral transformation complete.
	(VV|OV)...
	Starting AA second half-transformation.
	Starting AB second half-transformation.
	Starting BB second half-transformation.
	Two-electron integral transformation complete.
	(VV|VV)...
	Starting AA second half-transformation.
	Starting AB second half-transformation.
	Starting BB second half-transformation.
	Two-electron integral transformation complete.
	Frozen core energy     =   -338.06166191161674

	Size of irrep 0 of <AB|CD> integrals:      0.454 (MW) /      3.634 (MB)
	Size of irrep 1 of <AB|CD> integrals:      0.238 (MW) /      1.905 (MB)
	Size of irrep 2 of <AB|CD> integrals:      0.350 (MW) /      2.804 (MB)
	Size of irrep 3 of <AB|CD> integrals:      0.350 (MW) /      2.804 (MB)
	Total:                                     1.393 (MW) /     11.147 (MB)

	Size of irrep 0 of <ab|cd> integrals:      0.476 (MW) /      3.809 (MB)
	Size of irrep 1 of <ab|cd> integrals:      0.254 (MW) /      2.032 (MB)
	Size of irrep 2 of <ab|cd> integrals:      0.360 (MW) /      2.880 (MB)
	Size of irrep 3 of <ab|cd> integrals:      0.386 (MW) /      3.085 (MB)
	Total:                                     1.476 (MW) /     11.806 (MB)

	Size of irrep 0 of <Ab|Cd> integrals:      2.053 (MW) /     16.428 (MB)
	Size of irrep 1 of <Ab|Cd> integrals:      0.984 (MW) /      7.873 (MB)
	Size of irrep 2 of <Ab|Cd> integrals:      1.421 (MW) /     11.367 (MB)
	Size of irrep 3 of <Ab|Cd> integrals:      1.471 (MW) /     11.771 (MB)
	Total:                                     5.930 (MW) /     47.438 (MB)

	Size of irrep 0 of <IA|BC> integrals:      0.128 (MW) /      1.020 (MB)
	Size of irrep 1 of <IA|BC> integrals:      0.047 (MW) /      0.375 (MB)
	Size of irrep 2 of <IA|BC> integrals:      0.082 (MW) /      0.654 (MB)
	Size of irrep 3 of <IA|BC> integrals:      0.082 (MW) /      0.654 (MB)
	Total:                                     0.338 (MW) /      2.702 (MB)

	Size of irrep 0 of <ia|bc> integrals:      0.107 (MW) /      0.858 (MB)
	Size of irrep 1 of <ia|bc> integrals:      0.033 (MW) /      0.266 (MB)
	Size of irrep 2 of <ia|bc> integrals:      0.073 (MW) /      0.586 (MB)
	Size of irrep 3 of <ia|bc> integrals:      0.052 (MW) /      0.417 (MB)
	Total:                                     0.266 (MW) /      2.127 (MB)

	Size of irrep 0 of <Ia|Bc> integrals:      0.130 (MW) /      1.043 (MB)
	Size of irrep 1 of <Ia|Bc> integrals:      0.049 (MW) /      0.389 (MB)
	Size of irrep 2 of <Ia|Bc> integrals:      0.082 (MW) /      0.658 (MB)
	Size of irrep 3 of <Ia|Bc> integrals:      0.086 (MW) /      0.689 (MB)
	Total:                                     0.347 (MW) /      2.779 (MB)

	Size of irrep 0 of <iA|bC> integrals:      0.106 (MW) /      0.848 (MB)
	Size of irrep 1 of <iA|bC> integrals:      0.032 (MW) /      0.254 (MB)
	Size of irrep 2 of <iA|bC> integrals:      0.073 (MW) /      0.582 (MB)
	Size of irrep 3 of <iA|bC> integrals:      0.049 (MW) /      0.388 (MB)
	Total:                                     0.259 (MW) /      2.072 (MB)

	Size of irrep 0 of tIjAb amplitudes:       0.007 (MW) /      0.057 (MB)
	Size of irrep 1 of tIjAb amplitudes:       0.001 (MW) /      0.008 (MB)
	Size of irrep 2 of tIjAb amplitudes:       0.005 (MW) /      0.038 (MB)
	Size of irrep 3 of tIjAb amplitudes:       0.002 (MW) /      0.019 (MB)
	Total:                                     0.015 (MW) /      0.123 (MB)

	Nuclear Rep. energy          =      5.55124463127867
	SCF energy                   =   -341.29297396564095
	One-electron energy          =    -15.91974418291139
	Two-electron (AA) energy     =      1.83924964419343
	Two-electron (BB) energy     =      0.87806077308557
	Two-electron (AB) energy     =      4.41987708032935
	Two-electron energy          =      7.13718749760835
	Reference energy             =   -341.29297396564112

*** tstop() called on cqc05 at Thu Aug 20 20:04:16 2020
Module time:
	user time   =       0.67 seconds =       0.01 minutes
	system time =       0.33 seconds =       0.01 minutes
	total time  =          1 seconds =       0.02 minutes
Total time:
	user time   =       2.42 seconds =       0.04 minutes
	system time =       0.41 seconds =       0.01 minutes
	total time  =          2 seconds =       0.03 minutes

*** tstart() called on cqc05
*** at Thu Aug 20 20:04:16 2020

            **************************
            *                        *
            *        CCENERGY        *
            *                        *
            **************************

    Nuclear Rep. energy (wfn)     =    5.551244631278671
    SCF energy          (wfn)     = -341.292973965640954
    Reference energy    (file100) = -341.292973965641124

    Input parameters:
    -----------------
    Wave function   =     CCSD
    Reference wfn   =     UHF
    Brueckner       =     No
    Memory (Mbytes) =     250000.0
    Maxiter         =     50
    R_Convergence   =     1.0e-07
    E_Convergence   =     1.0e-06
    Restart         =     Yes
    DIIS            =     Yes
    AO Basis        =     NONE
    ABCD            =     NEW
    Cache Level     =     2
    Cache Type      =     LRU
    Print Level     =     1
    Num. of threads =     4
    # Amps to Print =     10
    Print MP2 Amps? =     No
    Analyze T2 Amps =     No
    Print Pair Ener =     No
    Local CC        =     No
    SCS-MP2         =     False
    SCSN-MP2        =     False
    SCS-CCSD        =     False

MP2 correlation energy -0.1458559560708841
                Solving CC Amplitude Equations
                ------------------------------
  Iter             Energy              RMS        T1Diag      D1Diag    New D1Diag    D2Diag
  ----     ---------------------    ---------   ----------  ----------  ----------   --------
     0        -0.145855956070887    0.000e+00    0.000000    0.000000    0.000000    0.000000
     1        -0.162035074367282    5.675e-02    0.011932    0.000000    0.000000    0.000000
     2        -0.168169361299473    2.157e-02    0.018222    0.000000    0.000000    0.000000
     3        -0.168763094277852    7.789e-03    0.021160    0.000000    0.000000    0.000000
     4        -0.168786151918419    3.446e-03    0.022653    0.000000    0.000000    0.000000
     5        -0.168760918369671    1.409e-03    0.023099    0.000000    0.000000    0.000000
     6        -0.168761456300582    5.887e-04    0.023232    0.000000    0.000000    0.000000
     7        -0.168767332523232    2.402e-04    0.023231    0.000000    0.000000    0.000000
     8        -0.168767858300420    9.677e-05    0.023220    0.000000    0.000000    0.000000
     9        -0.168767302544849    4.426e-05    0.023216    0.000000    0.000000    0.000000
    10        -0.168767194226455    1.930e-05    0.023213    0.000000    0.000000    0.000000
    11        -0.168767312344349    7.076e-06    0.023212    0.000000    0.000000    0.000000
    12        -0.168767465904982    2.422e-06    0.023212    0.000000    0.000000    0.000000
    13        -0.168767507904563    9.695e-07    0.023212    0.000000    0.000000    0.000000
    14        -0.168767518787626    3.823e-07    0.023212    0.000000    0.000000    0.000000
    15        -0.168767519405488    1.749e-07    0.023212    0.000000    0.000000    0.000000
    16        -0.168767518787495    7.964e-08    0.023212    0.000000    0.000000    0.000000
    16        -0.168767518787495    7.964e-08    0.023212    0.000000    0.000000    0.000000

    Iterations converged.

    CCSD corr. energy   =   -0.168767518787495
    PPL corr. energy    =    0.051146267590112
    OS PPL corr. energy =    0.043899657473566
    SS PPL corr. energy =    0.007246610116549
    Largest TIA Amplitudes:
              3  53        -0.0220812579
              1   3        -0.0196381808
              3  54         0.0139187917
              1   8         0.0114611912
              1   5        -0.0091121957
              1   6         0.0082325160
              3  57        -0.0067435461
              1  11         0.0066950133
              2  40        -0.0064339829
              3  55         0.0063016919

    Largest Tia Amplitudes:
              2  38         0.0166258079
              0   6         0.0148002940
              1   4        -0.0140222751
              2  37         0.0132351997
              0   9         0.0122884889
              0   4        -0.0117219659
              1   9         0.0109463839
              2  40        -0.0106616853
              0   3        -0.0096775660
              2  41        -0.0076583251

    Largest TIJAB Amplitudes:
      3   2  29   4        -0.0326925869
      3   2  30   9         0.0318455234
      3   1  54   3        -0.0260434893
      3   2  30   4        -0.0253438657
      3   2  29   9         0.0246031255
      3   2  53  37        -0.0237012579
      2   1  38   3        -0.0233853785
      3   1  57   3         0.0221603296
      3   2  56  40        -0.0201635045
      2   1  41   3         0.0192507976

    Largest Tijab Amplitudes:
      2   1  38   3         0.0256435238
      2   1  41   3        -0.0197837248
      2   1  38   6        -0.0183076862
      2   1  41   8         0.0172376613
      2   1  41   6         0.0170175299
      2   0  54  30        -0.0144885468
      2   0  54  29        -0.0141496250
      2   1  38   8        -0.0124601712
      1   0  58  54        -0.0124485105
      2   1  58  30        -0.0124017781

    Largest TIjAb Amplitudes:
      2   2  37  37        -0.0625486577
      1   1   6   6         0.0476735773
      1   1   3   3         0.0463277054

      * MP2 total energy                      = -341.438829921711999
      * CCSD total energy                     = -341.461741484428615
*** Psi4 exiting successfully. Buy a developer a beer!
