                               Psi4 1.2a1.dev938

  ==> Input File <==

--------------------------------------------------------------------------
# Any line starting with the # character is a comment line
memory 250000 mb
molecule molecule{
-1 2
P          0.0000000000        0.0000000000        0.0450645625
H          0.0000000000        0.0000000000       -1.3848234457
}

set {
  reference uhf
  basis aug-cc-pv(q+d)z
  scf_type OUT_OF_CORE
  freeze_core true
}

energy('ccsd')
--------------------------------------------------------------------------

    Molecular point group: c2v

    Geometry (in Angstrom), charge = -1, multiplicity = 2:

       Center              X                  Y                   Z               Mass
    ------------   -----------------  -----------------  -----------------  -----------------
           P          0.000000000000     0.000000000000     0.045059582034    30.973761629000
           H          0.000000000000     0.000000000000    -1.384828426166     1.007825032070

  Charge       = -1
  Multiplicity = 2
  Basis Set: AUG-CC-PV(Q+D)Z
    Blend: AUG-CC-PV(Q+D)Z

    Orbital Energies (a.u.)
    -----------------------

    Alpha Occupied:

       1A1   -79.689568     2A1    -7.230701     1B1    -5.134135
       3A1    -5.121396     1B2    -5.121228     4A1    -0.551194
       5A1    -0.214810     2B1    -0.115870     2B2    -0.058059

    Alpha Virtual:

       6A1     0.142927     7A1     0.192060     3B1     0.204402
       3B2     0.214375     8A1     0.278715     9A1     0.302168
       4B1     0.315184     4B2     0.323863     1A2     0.329271
      10A1     0.331182    11A1     0.389358     5B1     0.418088
      12A1     0.421200     5B2     0.424838     6B1     0.559325
      13A1     0.570260     6B2     0.586605    14A1     0.619909
       7B1     0.624911     2A2     0.627192    15A1     0.627668
       8B1     0.636541     7B2     0.636716     8B2     0.647677
       3A2     0.653064    16A1     0.658704    17A1     0.702462
       9B1     0.726278     9B2     0.739812    18A1     0.805655
      19A1     0.914709    10B1     0.922610    10B2     0.933052
       4A2     0.995910    20A1     0.996719    21A1     1.092356
      22A1     1.272689    11B1     1.274325    11B2     1.296961
       5A2     1.328478    23A1     1.332305    12B1     1.417867
      12B2     1.438993    13B1     1.470769    13B2     1.470849
      24A1     1.476759     6A2     1.480430    25A1     1.480908
       7A2     1.489759    14B1     1.490559    14B2     1.491069
      26A1     1.508101    15B1     1.564555    15B2     1.599476
      27A1     1.605719    16B1     1.610745    16B2     1.631417
       8A2     1.669549    28A1     1.672469    29A1     1.828630
      17B1     1.889053    17B2     1.902722    30A1     1.988854
      18B1     2.031887    18B2     2.031914    31A1     2.112816
       9A2     2.319259    32A1     2.319362    19B1     2.340640
      19B2     2.357821    33A1     2.387916    34A1     2.589145
      10A2     2.762761    35A1     2.764057    20B1     2.815982
      20B2     2.836505    11A2     3.023098    36A1     3.023516
      21B1     3.062933    21B2     3.080749    37A1     3.123795
      22B1     3.320338    22B2     3.320379    38A1     3.324340
      12A2     3.324366    23B1     3.443390    39A1     3.455523
      23B2     3.463416    24B1     3.590954    24B2     3.590975
      40A1     3.593384    13A2     3.593385    41A1     3.637064
      25B1     3.772141    25B2     3.790725    14A2     3.822817
      42A1     3.824395    43A1     4.226738    26B1     4.419881
      26B2     4.440035    44A1     4.497864    27B1     6.108014
      27B2     6.136141    28B1     6.882020    28B2     6.882021
      45A1     7.151807    15A2     7.151909    46A1     7.264539
      29B1     7.277165    29B2     7.287520    47A1     7.495099
      48A1     7.901425    16A2     7.901427    30B1     8.105521
      30B2     8.118002    49A1     8.368666    50A1     8.559278
      31B1     8.824335    31B2     8.830491    17A2     8.849071
      51A1     8.849104    32B1     9.515503    32B2     9.520719
      52A1     9.873208    53A1    10.702056    54A1    15.611238

    Beta Occupied:

       1A1   -79.683468     2A1    -7.223350     3A1    -5.118235
       1B2    -5.115900     1B1    -5.105863     4A1    -0.479934
       5A1    -0.194829     2B2    -0.033502

    Beta Virtual:

       6A1     0.143115     2B1     0.187794     7A1     0.192521
       3B2     0.217206     8A1     0.283376     3B1     0.292973
       9A1     0.305986     4B2     0.322260     4B1     0.323632
      10A1     0.337527     1A2     0.337599    11A1     0.390671
       5B1     0.424847     5B2     0.424924    12A1     0.431496
      13A1     0.574841     6B2     0.594696     6B1     0.618119
       2A2     0.632013    14A1     0.632028    15A1     0.637080
       7B2     0.643549     7B1     0.644186     8B2     0.649044
       8B1     0.661620     3A2     0.700598    16A1     0.700968
      17A1     0.705716     9B1     0.738624     9B2     0.740789
      18A1     0.818218    19A1     0.918843    10B1     0.931366
      10B2     0.933887     4A2     0.999243    20A1     0.999455
      21A1     1.097392    22A1     1.284462    11B1     1.298463
      11B2     1.299699     5A2     1.364210    23A1     1.364333
      12B1     1.441540    12B2     1.441799    13B1     1.482234
      13B2     1.482245    24A1     1.493312     6A2     1.493325
      25A1     1.501955     7A2     1.506331    26A1     1.509482
      14B1     1.517520    14B2     1.517526    15B1     1.604688
      15B2     1.605728    27A1     1.612023    16B1     1.627889
      16B2     1.633149     8A2     1.678533    28A1     1.679296
      29A1     1.834705    17B1     1.897380    17B2     1.903982
      30A1     1.992282    18B1     2.035420    18B2     2.035424
      31A1     2.120684     9A2     2.320636    32A1     2.320680
      19B1     2.352998    19B2     2.359827    33A1     2.394758
      34A1     2.597918    10A2     2.776247    35A1     2.776394
      20B1     2.829163    20B2     2.838364    11A2     3.029981
      36A1     3.030086    21B1     3.072981    21B2     3.082580
      37A1     3.127993    38A1     3.341073    12A2     3.341120
      22B1     3.346047    22B2     3.346048    23B1     3.455031
      39A1     3.457671    23B2     3.463692    24B1     3.607609
      24B2     3.607610    40A1     3.615705    13A2     3.615705
      41A1     3.646712    25B1     3.782034    25B2     3.791825
      14A2     3.833565    42A1     3.833956    43A1     4.228774
      26B1     4.431947    26B2     4.442234    44A1     4.501340
      27B1     6.132083    27B2     6.141246    28B1     6.882667
      28B2     6.882667    45A1     7.153159    15A2     7.153219
      46A1     7.265322    29B1     7.281285    29B2     7.287793
      47A1     7.496512    16A2     7.909808    48A1     7.909819
      30B1     8.111684    30B2     8.119106    49A1     8.368290
      50A1     8.562620    31B1     8.825382    31B2     8.829870
      17A2     8.848893    51A1     8.848909    32B1     9.515987
      32B2     9.520126    52A1     9.873005    53A1    10.703662
      54A1    15.618389

    Final Occupation by Irrep:
             A1    A2    B1    B2
    DOCC [     5,    0,    1,    2 ]
    SOCC [     0,    0,    1,    0 ]

  Energy converged.

  @UHF Final Energy:  -341.29558835774020

   => Energetics <=

    Nuclear Repulsion Energy =              5.5512446312786707
    One-Electron Energy =                -487.5016247663319291
    Two-Electron Energy =                 140.6547917773130507
    Total Energy =                       -341.2955883577402005

  UHF NO Occupations:
  HONO-2 :    2 B2 1.9968401
  HONO-1 :    5 A1 1.9920503
  HONO-0 :    2 B1 1.0000000
  LUNO+0 :    6 A1 0.0079497
  LUNO+1 :    3 B2 0.0031599
  LUNO+2 :    7 A1 0.0003324
  LUNO+3 :    3 B1 0.0000020

Properties will be evaluated at   0.000000,   0.000000,   0.000000 Bohr

Properties computed using the SCF density matrix

  Nuclear Dipole Moment: (a.u.)
     X:     0.0000      Y:     0.0000      Z:    -1.3397

  Electronic Dipole Moment: (a.u.)
     X:     0.0000      Y:     0.0000      Z:     1.2332

  Dipole Moment: (a.u.)
     X:     0.0000      Y:     0.0000      Z:    -0.1065     Total:     0.1065

  Dipole Moment: (Debye)
     X:     0.0000      Y:     0.0000      Z:    -0.2707     Total:     0.2707

*** tstop() called on cqc05 at Thu Aug 20 21:32:02 2020
Module time:
	user time   =       8.32 seconds =       0.14 minutes
	system time =       0.46 seconds =       0.01 minutes
	total time  =          8 seconds =       0.13 minutes
Total time:
	user time   =       8.32 seconds =       0.14 minutes
	system time =       0.46 seconds =       0.01 minutes
	total time  =          8 seconds =       0.13 minutes

*** tstart() called on cqc05
*** at Thu Aug 20 21:32:02 2020

	Wfn Parameters:
	--------------------
	Wavefunction         = CCSD
	Number of irreps     = 4
	Number of MOs        = 135
	Number of active MOs = 130
	AO-Basis             = NONE
	Semicanonical        = false
	Reference            = UHF
	Print Level          = 1

	IRREP	# MOs	# FZDC	# DOCC	# SOCC	# VIRT	# FZVR
	-----	-----	------	------	------	------	------
	 A1	   54	    3	    2	    0	    49	    0
	 A2	   17	    0	    0	    0	    17	    0
	 B1	   32	    1	    0	    1	    30	    0
	 B2	   32	    1	    1	    0	    30	    0
	Transforming integrals...
	IWL integrals will be deleted.
	(OO|OO)...
	Presorting SO-basis two-electron integrals.
	Sorting File: SO Ints (nn|nn) nbuckets = 1
	Transforming the one-electron integrals and constructing Fock matrices
	Starting AA/AB first half-transformation.
	Sorting AA/AB half-transformed integrals.
	Starting BB first half-transformation.
	Sorting BB half-transformed integrals.
	First half integral transformation complete.
	Starting AA second half-transformation.
	Starting AB second half-transformation.
	Starting BB second half-transformation.
	Two-electron integral transformation complete.
	(OO|OV)...
	Starting AA second half-transformation.
	Starting AB second half-transformation.
	Starting BB second half-transformation.
	Two-electron integral transformation complete.
	(OO|VV)...
	Starting AA second half-transformation.
	Starting AB second half-transformation.
	Starting BB second half-transformation.
	Two-electron integral transformation complete.
	(OV|OO)...
	Starting AA/AB first half-transformation.
	Sorting AA/AB half-transformed integrals.
	Starting BB first half-transformation.
	Sorting BB half-transformed integrals.
	First half integral transformation complete.
	Starting AA second half-transformation.
	Starting AB second half-transformation.
	Starting BB second half-transformation.
	Two-electron integral transformation complete.
	(OV|OV)...
	Starting AA second half-transformation.
	Starting AB second half-transformation.
	Starting BB second half-transformation.
	Two-electron integral transformation complete.
	(OV|VV)...
	Starting AA second half-transformation.
	Starting AB second half-transformation.
	Starting BB second half-transformation.
	Two-electron integral transformation complete.
	(VV|OO)...
	Starting AA/AB first half-transformation.
	Sorting AA/AB half-transformed integrals.
	Starting BB first half-transformation.
	Sorting BB half-transformed integrals.
	First half integral transformation complete.
	Starting AA second half-transformation.
	Starting AB second half-transformation.
	Starting BB second half-transformation.
	Two-electron integral transformation complete.
	(VV|OV)...
	Starting AA second half-transformation.
	Starting AB second half-transformation.
	Starting BB second half-transformation.
	Two-electron integral transformation complete.
	(VV|VV)...
	Starting AA second half-transformation.
	Starting AB second half-transformation.
	Starting BB second half-transformation.
	Two-electron integral transformation complete.
	Frozen core energy     =   -338.06356651055319

	Size of irrep 0 of <AB|CD> integrals:      4.761 (MW) /     38.089 (MB)
	Size of irrep 1 of <AB|CD> integrals:      3.003 (MW) /     24.026 (MB)
	Size of irrep 2 of <AB|CD> integrals:      3.920 (MW) /     31.363 (MB)
	Size of irrep 3 of <AB|CD> integrals:      3.920 (MW) /     31.363 (MB)
	Total:                                    15.605 (MW) /    124.842 (MB)

	Size of irrep 0 of <ab|cd> integrals:      4.893 (MW) /     39.144 (MB)
	Size of irrep 1 of <ab|cd> integrals:      3.108 (MW) /     24.865 (MB)
	Size of irrep 2 of <ab|cd> integrals:      4.117 (MW) /     32.935 (MB)
	Size of irrep 3 of <ab|cd> integrals:      3.988 (MW) /     31.904 (MB)
	Total:                                    16.106 (MW) /    128.848 (MB)

	Size of irrep 0 of <Ab|Cd> integrals:     20.430 (MW) /    163.443 (MB)
	Size of irrep 1 of <Ab|Cd> integrals:     12.222 (MW) /     97.776 (MB)
	Size of irrep 2 of <Ab|Cd> integrals:     16.072 (MW) /    128.577 (MB)
	Size of irrep 3 of <Ab|Cd> integrals:     15.817 (MW) /    126.532 (MB)
	Total:                                    64.541 (MW) /    516.328 (MB)

	Size of irrep 0 of <IA|BC> integrals:      0.709 (MW) /      5.675 (MB)
	Size of irrep 1 of <IA|BC> integrals:      0.326 (MW) /      2.606 (MB)
	Size of irrep 2 of <IA|BC> integrals:      0.499 (MW) /      3.992 (MB)
	Size of irrep 3 of <IA|BC> integrals:      0.499 (MW) /      3.992 (MB)
	Total:                                     2.033 (MW) /     16.265 (MB)

	Size of irrep 0 of <ia|bc> integrals:      0.583 (MW) /      4.660 (MB)
	Size of irrep 1 of <ia|bc> integrals:      0.229 (MW) /      1.834 (MB)
	Size of irrep 2 of <ia|bc> integrals:      0.321 (MW) /      2.565 (MB)
	Size of irrep 3 of <ia|bc> integrals:      0.435 (MW) /      3.483 (MB)
	Total:                                     1.568 (MW) /     12.541 (MB)

	Size of irrep 0 of <Ia|Bc> integrals:      0.719 (MW) /      5.749 (MB)
	Size of irrep 1 of <Ia|Bc> integrals:      0.332 (MW) /      2.657 (MB)
	Size of irrep 2 of <Ia|Bc> integrals:      0.513 (MW) /      4.105 (MB)
	Size of irrep 3 of <Ia|Bc> integrals:      0.501 (MW) /      4.009 (MB)
	Total:                                     2.065 (MW) /     16.520 (MB)

	Size of irrep 0 of <iA|bC> integrals:      0.579 (MW) /      4.628 (MB)
	Size of irrep 1 of <iA|bC> integrals:      0.224 (MW) /      1.790 (MB)
	Size of irrep 2 of <iA|bC> integrals:      0.309 (MW) /      2.470 (MB)
	Size of irrep 3 of <iA|bC> integrals:      0.433 (MW) /      3.468 (MB)
	Total:                                     1.544 (MW) /     12.356 (MB)

	Size of irrep 0 of tIjAb amplitudes:       0.023 (MW) /      0.181 (MB)
	Size of irrep 1 of tIjAb amplitudes:       0.003 (MW) /      0.028 (MB)
	Size of irrep 2 of tIjAb amplitudes:       0.008 (MW) /      0.064 (MB)
	Size of irrep 3 of tIjAb amplitudes:       0.016 (MW) /      0.127 (MB)
	Total:                                     0.050 (MW) /      0.400 (MB)

	Nuclear Rep. energy          =      5.55124463127867
	SCF energy                   =   -341.29558835774020
	One-electron energy          =    -15.91833588007390
	Two-electron (AA) energy     =      1.83992579198794
	Two-electron (BB) energy     =      0.87692038971014
	Two-electron (AB) energy     =      4.41822321991069
	Two-electron energy          =      7.13506940160877
	Reference energy             =   -341.29558835773963

*** tstop() called on cqc05 at Thu Aug 20 21:32:13 2020
Module time:
	user time   =       6.28 seconds =       0.10 minutes
	system time =       4.40 seconds =       0.07 minutes
	total time  =         11 seconds =       0.18 minutes
Total time:
	user time   =      14.60 seconds =       0.24 minutes
	system time =       4.86 seconds =       0.08 minutes
	total time  =         19 seconds =       0.32 minutes

*** tstart() called on cqc05
*** at Thu Aug 20 21:32:13 2020

            **************************
            *                        *
            *        CCENERGY        *
            *                        *
            **************************

    Nuclear Rep. energy (wfn)     =    5.551244631278671
    SCF energy          (wfn)     = -341.295588357740201
    Reference energy    (file100) = -341.295588357739632

    Input parameters:
    -----------------
    Wave function   =     CCSD
    Reference wfn   =     UHF
    Brueckner       =     No
    Memory (Mbytes) =     250000.0
    Maxiter         =     50
    R_Convergence   =     1.0e-07
    E_Convergence   =     1.0e-06
    Restart         =     Yes
    DIIS            =     Yes
    AO Basis        =     NONE
    ABCD            =     NEW
    Cache Level     =     2
    Cache Type      =     LRU
    Print Level     =     1
    Num. of threads =     4
    # Amps to Print =     10
    Print MP2 Amps? =     No
    Analyze T2 Amps =     No
    Print Pair Ener =     No
    Local CC        =     No
    SCS-MP2         =     False
    SCSN-MP2        =     False
    SCS-CCSD        =     False

MP2 correlation energy -0.1553784442038972
                Solving CC Amplitude Equations
                ------------------------------
  Iter             Energy              RMS        T1Diag      D1Diag    New D1Diag    D2Diag
  ----     ---------------------    ---------   ----------  ----------  ----------   --------
     0        -0.155378444203961    0.000e+00    0.000001    0.000000    0.000000    0.000000
     1        -0.169085906043144    5.619e-02    0.012677    0.000000    0.000000    0.000000
     2        -0.175074414240201    2.146e-02    0.018756    0.000000    0.000000    0.000000
     3        -0.175727961267354    8.382e-03    0.021803    0.000000    0.000000    0.000000
     4        -0.175756160625335    3.838e-03    0.023570    0.000000    0.000000    0.000000
     5        -0.175730198902479    1.575e-03    0.024064    0.000000    0.000000    0.000000
     6        -0.175725884140155    7.207e-04    0.024271    0.000000    0.000000    0.000000
     7        -0.175730755532735    2.801e-04    0.024288    0.000000    0.000000    0.000000
     8        -0.175732499594547    1.216e-04    0.024277    0.000000    0.000000    0.000000
     9        -0.175732091547713    5.642e-05    0.024273    0.000000    0.000000    0.000000
    10        -0.175731770852444    2.501e-05    0.024269    0.000000    0.000000    0.000000
    11        -0.175731925070436    9.507e-06    0.024268    0.000000    0.000000    0.000000
    12        -0.175732121013173    3.741e-06    0.024268    0.000000    0.000000    0.000000
    13        -0.175732213807305    1.565e-06    0.024268    0.000000    0.000000    0.000000
    14        -0.175732236485638    6.088e-07    0.024268    0.000000    0.000000    0.000000
    15        -0.175732239515164    2.863e-07    0.024268    0.000000    0.000000    0.000000
    16        -0.175732238957769    1.423e-07    0.024268    0.000000    0.000000    0.000000
    17        -0.175732238706838    6.010e-08    0.024268    0.000000    0.000000    0.000000
    17        -0.175732238706838    6.010e-08    0.024268    0.000000    0.000000    0.000000

    Iterations converged.

    CCSD corr. energy   =   -0.175732238706838
    PPL corr. energy    =    0.056273187779383
    OS PPL corr. energy =    0.048699407835408
    SS PPL corr. energy =    0.007573779943971
    Largest TIA Amplitudes:
              2  66         0.0204403222
              1   3         0.0156561327
              1   6         0.0128991380
              1   8        -0.0123322848
              2  67        -0.0102588750
              1   7        -0.0098698064
              2  68        -0.0095930800
              2  70         0.0082951431
              0   8         0.0077527979
              3  99         0.0065468315

    Largest Tia Amplitudes:

      * MP2 total energy                      = -341.450966801943537
      * CCSD total energy                     = -341.471320596446446
*** Psi4 exiting successfully. Buy a developer a beer!
