                               Psi4 1.2a1.dev939

  ==> Input File <==

--------------------------------------------------------------------------
# Any line starting with the # character is a comment line

memory 32000 mb

molecule molecule {
0 1
C          0.0000000000        0.0000000000        0.6665882445
C          0.0000000000        0.0000000000       -0.6665882445
H          0.0000000000        0.9233992299        1.2285968100
H          0.0000000000       -0.9233992299        1.2285968100
H          0.0000000000        0.9233992299       -1.2285968100
H          0.0000000000       -0.9233992299       -1.2285968100
}

set {
  reference rhf
  basis aug-cc-pv(D+d)z
  scf_type OUT_OF_CORE
  freeze_core true
}

energy('ccsd')
--------------------------------------------------------------------------

    Molecular point group: d2h

    Geometry (in Angstrom), charge = 0, multiplicity = 1:

       Center              X                  Y                   Z               Mass
    ------------   -----------------  -----------------  -----------------  -----------------
           C          0.000000000000     0.000000000000     0.666588244500    12.000000000000
           C          0.000000000000     0.000000000000    -0.666588244500    12.000000000000
           H         -0.000000000000     0.923399229900     1.228596810000     1.007825032070
           H          0.000000000000    -0.923399229900     1.228596810000     1.007825032070
           H         -0.000000000000     0.923399229900    -1.228596810000     1.007825032070
           H          0.000000000000    -0.923399229900    -1.228596810000     1.007825032070

  Charge       = 0
  Multiplicity = 1
  Basis Set: AUG-CC-PV(D+D)Z
    Blend: AUG-CC-PV(D+D)Z

    Orbital Energies (a.u.)
    -----------------------

    Doubly Occupied:

       1Ag   -11.239043     1B1u  -11.237371     2Ag    -1.036600
       2B1u   -0.794226     1B2u   -0.644769     3Ag    -0.587209
       1B3g   -0.507961     1B3u   -0.376484

  @RHF Final Energy:   -78.04358822956485

   => Energetics <=

    Nuclear Repulsion Energy =             33.4106847835824610
    One-Electron Energy =                -170.0612206974387846
    Two-Electron Energy =                  58.6069476842914767
    Total Energy =                        -78.0435882295648469
      * MP2 total energy                      =  -78.328221447592512
      * CCSD total energy                     =  -78.357345030827403
*** Psi4 exiting successfully. Buy a developer a beer!
