                               Psi4 1.2a1.dev939

  ==> Input File <==

--------------------------------------------------------------------------
# Any line starting with the # character is a comment line

memory 32000 mb

molecule molecule {
0 1
C          0.0000000000        0.0000000000        0.6665882445
C          0.0000000000        0.0000000000       -0.6665882445
H          0.0000000000        0.9233992299        1.2285968100
H          0.0000000000       -0.9233992299        1.2285968100
H          0.0000000000        0.9233992299       -1.2285968100
H          0.0000000000       -0.9233992299       -1.2285968100
}

set {
  reference rhf
  basis aug-cc-pv(Q+d)z
  scf_type OUT_OF_CORE
  freeze_core true
}

energy('ccsd')
--------------------------------------------------------------------------

    Molecular point group: d2h

    Geometry (in Angstrom), charge = 0, multiplicity = 1:

       Center              X                  Y                   Z               Mass
    ------------   -----------------  -----------------  -----------------  -----------------
           C          0.000000000000     0.000000000000     0.666588244500    12.000000000000
           C          0.000000000000     0.000000000000    -0.666588244500    12.000000000000
           H         -0.000000000000     0.923399229900     1.228596810000     1.007825032070
           H          0.000000000000    -0.923399229900     1.228596810000     1.007825032070
           H         -0.000000000000     0.923399229900    -1.228596810000     1.007825032070
           H          0.000000000000    -0.923399229900    -1.228596810000     1.007825032070

  Charge       = 0
  Multiplicity = 1
  Basis Set: AUG-CC-PV(Q+D)Z
    Blend: AUG-CC-PV(Q+D)Z

    Orbital Energies (a.u.)
    -----------------------

    Doubly Occupied:

       1Ag   -11.230414     1B1u  -11.228696     2Ag    -1.034276
       2B1u   -0.793433     1B2u   -0.644957     3Ag    -0.587738
       1B3g   -0.508902     1B3u   -0.377186

  @RHF Final Energy:   -78.06938768984097

   => Energetics <=

    Nuclear Repulsion Energy =             33.4106847835824610
    One-Electron Energy =                -170.1489387147307184
    Two-Electron Energy =                  58.6688662413072848
    Total Energy =                        -78.0693876898409655
      * MP2 total energy                      =  -78.427678859772158
      * CCSD total energy                     =  -78.447094418439846
*** Psi4 exiting successfully. Buy a developer a beer!
