                               Psi4 1.2a1.dev939

  ==> Input File <==

--------------------------------------------------------------------------
# Any line starting with the # character is a comment line

memory 32000 mb

molecule molecule {
0 1
C          0.0000000000        0.0000000000        0.6665882445
C          0.0000000000        0.0000000000       -0.6665882445
H          0.0000000000        0.9233992299        1.2285968100
H          0.0000000000       -0.9233992299        1.2285968100
H          0.0000000000        0.9233992299       -1.2285968100
H          0.0000000000       -0.9233992299       -1.2285968100
}

set {
  reference rhf
  basis aug-cc-pv(T+d)z
  scf_type OUT_OF_CORE
  freeze_core true
}

energy('ccsd')
--------------------------------------------------------------------------

    Molecular point group: d2h

    Geometry (in Angstrom), charge = 0, multiplicity = 1:

       Center              X                  Y                   Z               Mass
    ------------   -----------------  -----------------  -----------------  -----------------
           C          0.000000000000     0.000000000000     0.666588244500    12.000000000000
           C          0.000000000000     0.000000000000    -0.666588244500    12.000000000000
           H         -0.000000000000     0.923399229900     1.228596810000     1.007825032070
           H          0.000000000000    -0.923399229900     1.228596810000     1.007825032070
           H         -0.000000000000     0.923399229900    -1.228596810000     1.007825032070
           H          0.000000000000    -0.923399229900    -1.228596810000     1.007825032070

  Charge       = 0
  Multiplicity = 1
  Basis Set: AUG-CC-PV(T+D)Z
    Blend: AUG-CC-PV(T+D)Z

    Orbital Energies (a.u.)
    -----------------------

    Doubly Occupied:

       1Ag   -11.231497     1B1u  -11.229781     2Ag    -1.034528
       2B1u   -0.793491     1B2u   -0.644894     3Ag    -0.587652
       1B3g   -0.508723     1B3u   -0.377046

  @RHF Final Energy:   -78.06469454718680

   => Energetics <=

    Nuclear Repulsion Energy =             33.4106847835824610
    One-Electron Energy =                -170.1355332621209016
    Two-Electron Energy =                  58.6601539313516298
    Total Energy =                        -78.0646945471868037
      * MP2 total energy                      =  -78.404529125664752
      * CCSD total energy                     =  -78.428217004265917
*** Psi4 exiting successfully. Buy a developer a beer!
