                               Psi4 1.4a3.dev88

  ==> Input File <==

--------------------------------------------------------------------------
# Any line starting with the # character is a comment line
memory 250000 mb
molecule molecule{
-1 1
O          0.0000000000        0.0000000000        0.0573315255
H          0.0000000000        0.0000000000       -0.9100442572
}

set {
  reference rhf
  basis aug-cc-pV(d+d)Z
  scf_type OUT_OF_CORE
  freeze_core true
}

energy('ccsd(t)')
--------------------------------------------------------------------------

    Molecular point group: c2v

    Geometry (in Angstrom), charge = -1, multiplicity = 1:

       Center              X                  Y                   Z               Mass
    ------------   -----------------  -----------------  -----------------  -----------------
         O            0.000000000000     0.000000000000     0.057340496258    15.994914619570
         H            0.000000000000     0.000000000000    -0.910035286442     1.007825032230

  Charge       = -1
  Multiplicity = 1
  Basis Set: AUG-CC-PV(D+D)Z
    Blend: AUG-CC-PV(D+D)Z

    Orbital Energies [Eh]
    ---------------------

    Doubly Occupied:

       1A1   -20.198115     2A1    -0.904445     3A1    -0.251321
       1B2    -0.108298     1B1    -0.108298

  @RHF Final Energy:   -75.39576486329814

   => Energetics <=

    Nuclear Repulsion Energy =              4.3761873731677410
    One-Electron Energy =                -116.4029496387790772
    Two-Electron Energy =                  36.6309974023131915
    Total Energy =                        -75.3957648632981545

  Dipole Moment: [D]
     X:     0.0000      Y:     0.0000      Z:    -1.2916     Total:     1.2916

      * MP2 total energy                      =  -75.636985790447014
      * CCSD total energy                     =  -75.635820510422988
      * CCSD(T) total energy                  =  -75.643907670335324
*** Psi4 exiting successfully. Buy a developer a beer!
