                               Psi4 1.4a3.dev88

  ==> Input File <==

--------------------------------------------------------------------------
# Any line starting with the # character is a comment line
memory 250000 mb
molecule molecule{
-1 1
O          0.0000000000        0.0000000000        0.0573315255
H          0.0000000000        0.0000000000       -0.9100442572
}

set {
  reference rhf
  basis aug-cc-pV(5+d)Z
  scf_type OUT_OF_CORE
  freeze_core true
}

energy('ccsd(t)')
--------------------------------------------------------------------------

    Molecular point group: c2v

    Geometry (in Angstrom), charge = -1, multiplicity = 1:

       Center              X                  Y                   Z               Mass
    ------------   -----------------  -----------------  -----------------  -----------------
         O            0.000000000000     0.000000000000     0.057340496258    15.994914619570
         H            0.000000000000     0.000000000000    -0.910035286442     1.007825032230

  Charge       = -1
  Multiplicity = 1
  Basis Set: AUG-CC-PV(5+D)Z
    Blend: AUG-CC-PV(5+D)Z

    Orbital Energies [Eh]
    ---------------------

    Doubly Occupied:

       1A1   -20.185001     2A1    -0.901603     3A1    -0.251401
       1B2    -0.109441     1B1    -0.109441

  @RHF Final Energy:   -75.41800031858550

   => Energetics <=

    Nuclear Repulsion Energy =              4.3761873731677410
    One-Electron Energy =                -116.4745992727544319
    Two-Electron Energy =                  36.6804115810011950
    Total Energy =                        -75.4180003185854986

  Dipole Moment: [D]
     X:     0.0000      Y:     0.0000      Z:    -1.2448     Total:     1.2448

      * MP2 total energy                      =  -75.733504919678253
      * CCSD total energy                     =  -75.723368860492158
      * CCSD(T) total energy                  =  -75.737156768971801
*** Psi4 exiting successfully. Buy a developer a beer!
