                               Psi4 1.4a3.dev88

  ==> Input File <==

--------------------------------------------------------------------------
# Any line starting with the # character is a comment line
memory 250000 mb
molecule molecule{
-1 1
O          0.0000000000        0.0000000000        0.0573315255
H          0.0000000000        0.0000000000       -0.9100442572
}

set {
  reference rhf
  basis aug-cc-pV(6+d)Z
  scf_type OUT_OF_CORE
  freeze_core true
}

energy('ccsd(t)')
--------------------------------------------------------------------------

    Molecular point group: c2v

    Geometry (in Angstrom), charge = -1, multiplicity = 1:

       Center              X                  Y                   Z               Mass
    ------------   -----------------  -----------------  -----------------  -----------------
         O            0.000000000000     0.000000000000     0.057340496258    15.994914619570
         H            0.000000000000     0.000000000000    -0.910035286442     1.007825032230

  Charge       = -1
  Multiplicity = 1
  Basis Set: AUG-CC-PV(6+D)Z
    Blend: AUG-CC-PV(6+D)Z

    Orbital Energies [Eh]
    ---------------------

    Doubly Occupied:

       1A1   -20.185213     2A1    -0.901807     3A1    -0.251627
       1B2    -0.109591     1B1    -0.109591

  @RHF Final Energy:   -75.41813443858884

   => Energetics <=

    Nuclear Repulsion Energy =              4.3761873731677410
    One-Electron Energy =                -116.4729850892266256
    Two-Electron Energy =                  36.6786632774700507
    Total Energy =                        -75.4181344385888366

  Dipole Moment: [D]
     X:     0.0000      Y:     0.0000      Z:    -1.2372     Total:     1.2372

      * MP2 total energy                      =  -75.736960745292564
      * CCSD total energy                     =  -75.725638784801546
      * CCSD(T) total energy                  =  -75.739592404833076
*** Psi4 exiting successfully. Buy a developer a beer!
