                               Psi4 1.4a3.dev88

  ==> Input File <==

--------------------------------------------------------------------------
# Any line starting with the # character is a comment line
memory 250000 mb
molecule molecule{
0 4
P          0.0000000000        0.0000000000        0.0000000000
}

set {
  reference uhf
  basis aug-cc-pv(q+d)z
  scf_type OUT_OF_CORE
  freeze_core true
}

energy('ccsd(t)')
--------------------------------------------------------------------------

    Molecular point group: d2h
    Geometry (in Angstrom), charge = 0, multiplicity = 4:

       Center              X                  Y                   Z               Mass
    ------------   -----------------  -----------------  -----------------  -----------------
         P            0.000000000000     0.000000000000     0.000000000000    30.973761998420

  Charge       = 0
  Multiplicity = 4
  Basis Set: AUG-CC-PV(Q+D)Z
    Blend: AUG-CC-PV(Q+D)Z

    Orbital Energies [Eh]
    ---------------------

    Alpha Occupied:

       1Ag   -79.979343     2Ag    -7.522144     1B2u   -5.420888
       1B3u   -5.420888     1B1u   -5.420888     3Ag    -0.836248
       2B2u   -0.392087     2B3u   -0.392087     2B1u   -0.392086

    Alpha Virtual:

       4Ag     0.065635     3B2u    0.070579     3B3u    0.070579
       3B1u    0.070579     1B2g    0.154331     5Ag     0.154331
       1B3g    0.154331     1B1g    0.154331     6Ag     0.154331
       4B2u    0.352617     4B3u    0.352617     4B1u    0.352617
       2B1g    0.402349     7Ag     0.402349     2B3g    0.402349
       2B2g    0.402349     8Ag     0.402349     9Ag     0.406458
       5B3u    0.432835     5B1u    0.432835     1Au     0.432835
       5B2u    0.432835     6B1u    0.432835     6B3u    0.432835
       6B2u    0.432835    10Ag     1.054865     3B1g    1.054865
       3B3g    1.054865     3B2g    1.054865    11Ag     1.054865
       7B3u    1.221623     7B2u    1.221623     7B1u    1.221623
       2Au     1.221623     8B2u    1.221623     8B3u    1.221623
       8B1u    1.221623     4B2g    1.229348    12Ag     1.229348
       4B1g    1.229348     4B3g    1.229348    13Ag     1.229348
       5B2g    1.229348     5B3g    1.229348     5B1g    1.229348
      14Ag     1.229348     9B2u    1.337254     9B3u    1.337254
       9B1u    1.337254    15Ag     1.670014    16Ag     2.501281
       6B2g    2.501281     6B3g    2.501281     6B1g    2.501281
      17Ag     2.501281    10B2u    3.026819    10B3u    3.026819
      10B1u    3.026819     3Au     3.026819    11B2u    3.026819
      11B3u    3.026819    11B1u    3.026819    18Ag     3.303567
       7B2g    3.303567     7B3g    3.303567     7B1g    3.303567
      19Ag     3.303567     8B2g    3.303567     8B3g    3.303567
       8B1g    3.303567    20Ag     3.303567    12B2u    5.584621
      12B3u    5.584621    12B1u    5.584621    21Ag     7.598590
       9B2g    7.598590     9B3g    7.598590     9B1g    7.598590
      22Ag     7.598590    23Ag    12.675071

    Beta Occupied:

       1Ag   -79.959909     2Ag    -7.499812     1B1u   -5.380834
       1B3u   -5.380834     1B2u   -5.380834     3Ag    -0.556353

    Beta Virtual:

       2B1u    0.028571     2B3u    0.028571     2B2u    0.028571
       4Ag     0.077447     3B1u    0.104487     3B3u    0.104487
       3B2u    0.104487     5Ag     0.173807     1B1g    0.173807
       1B3g    0.173807     1B2g    0.173807     6Ag     0.173807
       4B1u    0.414434     4B3u    0.414434     4B2u    0.414434
       5B2u    0.445727     5B3u    0.445727     5B1u    0.445727
       1Au     0.445727     6B2u    0.445727     6B3u    0.445727
       6B1u    0.445727     7Ag     0.447678     8Ag     0.495096
       2B2g    0.495096     2B3g    0.495096     2B1g    0.495096
       9Ag     0.495096    10Ag     1.128114     3B2g    1.128114
       3B3g    1.128114     3B1g    1.128114    11Ag     1.128114
      12Ag     1.252586     4B1g    1.252586     4B3g    1.252586
      13Ag     1.252586     4B2g    1.252586     5B3g    1.252586
      14Ag     1.252586     5B2g    1.252586     5B1g    1.252586
       7B1u    1.277469     7B3u    1.277469     7B2u    1.277469
       2Au     1.277469     8B1u    1.277469     8B3u    1.277469
       8B2u    1.277469     9B1u    1.405574     9B3u    1.405574
       9B2u    1.405574    15Ag     1.721558    16Ag     2.533714
       6B2g    2.533714     6B3g    2.533714     6B1g    2.533714
      17Ag     2.533714    10B1u    3.080764    10B3u    3.080764
      10B2u    3.080764     3Au     3.080764    11B1u    3.080764
      11B3u    3.080764    11B2u    3.080764    18Ag     3.349289
       7B2g    3.349289     7B3g    3.349289     7B1g    3.349289
      19Ag     3.349289     8B2g    3.349289     8B3g    3.349289
       8B1g    3.349289    20Ag     3.349289    12B1u    5.624060
      12B3u    5.624060    12B2u    5.624060    21Ag     7.617519
       9B2g    7.617519     9B3g    7.617519     9B1g    7.617519
      22Ag     7.617519    23Ag    12.702276

    Final Occupation by Irrep:
             Ag   B1g   B2g   B3g    Au   B1u   B2u   B3u
    DOCC [     3,    0,    0,    0,    0,    1,    1,    1 ]
    SOCC [     0,    0,    0,    0,    0,    1,    1,    1 ]

  @UHF Final Energy:  -340.71874118890787

   => Energetics <=

    Nuclear Repulsion Energy =              0.0000000000000000
    One-Electron Energy =                -471.5022503663346924
    Two-Electron Energy =                 130.7835091774268221
    Total Energy =                       -340.7187411889078703

  UHF NO Occupations:
  HONO-2 :    2B1u 1.0000000
  HONO-1 :    2B3u 1.0000000
  HONO-0 :    2B2u 1.0000000
  LUNO+0 :    4 Ag 0.0003272
  LUNO+1 :    3B2u 0.0000031
  LUNO+2 :    3B3u 0.0000031
  LUNO+3 :    3B1u 0.0000031

Computation Completed

Properties will be evaluated at   0.000000,   0.000000,   0.000000 [a0]

Properties computed using the SCF density matrix

  Nuclear Dipole Moment: [e a0]
     X:     0.0000      Y:     0.0000      Z:     0.0000

  Electronic Dipole Moment: [e a0]
     X:     0.0000      Y:     0.0000      Z:     0.0000

  Dipole Moment: [e a0]
     X:     0.0000      Y:     0.0000      Z:     0.0000     Total:     0.0000

  Dipole Moment: [D]
     X:     0.0000      Y:     0.0000      Z:     0.0000     Total:     0.0000

*** tstop() called on n412-052.vsc4.prov at Wed Jan 20 20:48:34 2021
Module time:
	user time   =      17.91 seconds =       0.30 minutes
	system time =       1.16 seconds =       0.02 minutes
	total time  =          6 seconds =       0.10 minutes
Total time:
	user time   =      17.91 seconds =       0.30 minutes
	system time =       1.16 seconds =       0.02 minutes
	total time  =          6 seconds =       0.10 minutes

*** tstart() called on n412-052.vsc4.prov
*** at Wed Jan 20 20:48:34 2021

	Wfn Parameters:
	--------------------
	Wavefunction         = CCSD_T
	Number of irreps     = 8
	Number of MOs        = 89
	Number of active MOs = 84
	AO-Basis             = NONE
	Semicanonical        = false
	Reference            = UHF
	Print Level          = 1

	IRREP	# MOs	# FZDC	# DOCC	# SOCC	# VIRT	# FZVR
	-----	-----	------	------	------	------	------
	 Ag	   23	    2	    1	    0	    20	    0
	 B1g	   9	    0	    0	    0	    9	    0
	 B2g	   9	    0	    0	    0	    9	    0
	 B3g	   9	    0	    0	    0	    9	    0
	 Au	   3	    0	    0	    0	    3	    0
	 B1u	   12	    1	    0	    1	    10	    0
	 B2u	   12	    1	    0	    1	    10	    0
	 B3u	   12	    1	    0	    1	    10	    0
	Transforming integrals...
	IWL integrals will be deleted.
	(OO|OO)...
	Presorting SO-basis two-electron integrals.
	Sorting File: SO Ints (nn|nn) nbuckets = 1
	Constructing frozen core operators
	Starting AA/AB first half-transformation.
	Sorting AA/AB half-transformed integrals.
	Starting BB first half-transformation.
	Sorting BB half-transformed integrals.
	First half integral transformation complete.
	Starting AA second half-transformation.
	Starting AB second half-transformation.
	Starting BB second half-transformation.
	Two-electron integral transformation complete.
	(OO|OV)...
	Starting AA second half-transformation.
	Starting AB second half-transformation.
	Starting BB second half-transformation.
	Two-electron integral transformation complete.
	(OO|VV)...
	Starting AA second half-transformation.
	Starting AB second half-transformation.
	Starting BB second half-transformation.
	Two-electron integral transformation complete.
	(OV|OO)...
	Starting AA/AB first half-transformation.
	Sorting AA/AB half-transformed integrals.
	Starting BB first half-transformation.
	Sorting BB half-transformed integrals.
	First half integral transformation complete.
	Starting AA second half-transformation.
	Starting AB second half-transformation.
	Starting BB second half-transformation.
	Two-electron integral transformation complete.
	(OV|OV)...
	Starting AA second half-transformation.
	Starting AB second half-transformation.
	Starting BB second half-transformation.
	Two-electron integral transformation complete.
	(OV|VV)...
	Starting AA second half-transformation.
	Starting AB second half-transformation.
	Starting BB second half-transformation.
	Two-electron integral transformation complete.
	(VV|OO)...
	Starting AA/AB first half-transformation.
	Sorting AA/AB half-transformed integrals.
	Starting BB first half-transformation.
	Sorting BB half-transformed integrals.
	First half integral transformation complete.
	Starting AA second half-transformation.
	Starting AB second half-transformation.
	Starting BB second half-transformation.
	Two-electron integral transformation complete.
	(VV|OV)...
	Starting AA second half-transformation.
	Starting AB second half-transformation.
	Starting BB second half-transformation.
	Two-electron integral transformation complete.
	(VV|VV)...
	Starting AA second half-transformation.
	Starting AB second half-transformation.
	Starting BB second half-transformation.
	Two-electron integral transformation complete.
	Frozen core energy     =   -334.36226334616873

	Size of irrep 0 of <AB|CD> integrals:      0.190 (MW) /      1.521 (MB)
	Size of irrep 1 of <AB|CD> integrals:      0.153 (MW) /      1.223 (MB)
	Size of irrep 2 of <AB|CD> integrals:      0.153 (MW) /      1.223 (MB)
	Size of irrep 3 of <AB|CD> integrals:      0.153 (MW) /      1.223 (MB)
	Size of irrep 4 of <AB|CD> integrals:      0.109 (MW) /      0.871 (MB)
	Size of irrep 5 of <AB|CD> integrals:      0.166 (MW) /      1.325 (MB)
	Size of irrep 6 of <AB|CD> integrals:      0.166 (MW) /      1.325 (MB)
	Size of irrep 7 of <AB|CD> integrals:      0.166 (MW) /      1.325 (MB)
	Total:                                     1.255 (MW) /     10.037 (MB)

	Size of irrep 0 of <ab|cd> integrals:      0.217 (MW) /      1.737 (MB)
	Size of irrep 1 of <ab|cd> integrals:      0.172 (MW) /      1.378 (MB)
	Size of irrep 2 of <ab|cd> integrals:      0.172 (MW) /      1.378 (MB)
	Size of irrep 3 of <ab|cd> integrals:      0.172 (MW) /      1.378 (MB)
	Size of irrep 4 of <ab|cd> integrals:      0.127 (MW) /      1.020 (MB)
	Size of irrep 5 of <ab|cd> integrals:      0.198 (MW) /      1.584 (MB)
	Size of irrep 6 of <ab|cd> integrals:      0.198 (MW) /      1.584 (MB)
	Size of irrep 7 of <ab|cd> integrals:      0.198 (MW) /      1.584 (MB)
	Total:                                     1.455 (MW) /     11.643 (MB)

	Size of irrep 0 of <Ab|Cd> integrals:      0.964 (MW) /      7.715 (MB)
	Size of irrep 1 of <Ab|Cd> integrals:      0.648 (MW) /      5.184 (MB)
	Size of irrep 2 of <Ab|Cd> integrals:      0.648 (MW) /      5.184 (MB)
	Size of irrep 3 of <Ab|Cd> integrals:      0.648 (MW) /      5.184 (MB)
	Size of irrep 4 of <Ab|Cd> integrals:      0.472 (MW) /      3.776 (MB)
	Size of irrep 5 of <Ab|Cd> integrals:      0.726 (MW) /      5.807 (MB)
	Size of irrep 6 of <Ab|Cd> integrals:      0.726 (MW) /      5.807 (MB)
	Size of irrep 7 of <Ab|Cd> integrals:      0.726 (MW) /      5.807 (MB)
	Total:                                     5.558 (MW) /     44.465 (MB)

	Size of irrep 0 of <IA|BC> integrals:      0.048 (MW) /      0.381 (MB)
	Size of irrep 1 of <IA|BC> integrals:      0.025 (MW) /      0.200 (MB)
	Size of irrep 2 of <IA|BC> integrals:      0.025 (MW) /      0.200 (MB)
	Size of irrep 3 of <IA|BC> integrals:      0.025 (MW) /      0.200 (MB)
	Size of irrep 4 of <IA|BC> integrals:      0.020 (MW) /      0.158 (MB)
	Size of irrep 5 of <IA|BC> integrals:      0.039 (MW) /      0.313 (MB)
	Size of irrep 6 of <IA|BC> integrals:      0.039 (MW) /      0.313 (MB)
	Size of irrep 7 of <IA|BC> integrals:      0.039 (MW) /      0.313 (MB)
	Total:                                     0.260 (MW) /      2.078 (MB)

	Size of irrep 0 of <ia|bc> integrals:      0.020 (MW) /      0.162 (MB)
	Size of irrep 1 of <ia|bc> integrals:      0.007 (MW) /      0.060 (MB)
	Size of irrep 2 of <ia|bc> integrals:      0.007 (MW) /      0.060 (MB)
	Size of irrep 3 of <ia|bc> integrals:      0.007 (MW) /      0.060 (MB)
	Size of irrep 4 of <ia|bc> integrals:      0.002 (MW) /      0.017 (MB)
	Size of irrep 5 of <ia|bc> integrals:      0.010 (MW) /      0.078 (MB)
	Size of irrep 6 of <ia|bc> integrals:      0.010 (MW) /      0.078 (MB)
	Size of irrep 7 of <ia|bc> integrals:      0.010 (MW) /      0.078 (MB)
	Total:                                     0.074 (MW) /      0.594 (MB)

	Size of irrep 0 of <Ia|Bc> integrals:      0.052 (MW) /      0.416 (MB)
	Size of irrep 1 of <Ia|Bc> integrals:      0.027 (MW) /      0.219 (MB)
	Size of irrep 2 of <Ia|Bc> integrals:      0.027 (MW) /      0.219 (MB)
	Size of irrep 3 of <Ia|Bc> integrals:      0.027 (MW) /      0.219 (MB)
	Size of irrep 4 of <Ia|Bc> integrals:      0.021 (MW) /      0.165 (MB)
	Size of irrep 5 of <Ia|Bc> integrals:      0.042 (MW) /      0.334 (MB)
	Size of irrep 6 of <Ia|Bc> integrals:      0.042 (MW) /      0.334 (MB)
	Size of irrep 7 of <Ia|Bc> integrals:      0.042 (MW) /      0.334 (MB)
	Total:                                     0.280 (MW) /      2.240 (MB)

	Size of irrep 0 of <iA|bC> integrals:      0.020 (MW) /      0.157 (MB)
	Size of irrep 1 of <iA|bC> integrals:      0.007 (MW) /      0.058 (MB)
	Size of irrep 2 of <iA|bC> integrals:      0.007 (MW) /      0.058 (MB)
	Size of irrep 3 of <iA|bC> integrals:      0.007 (MW) /      0.058 (MB)
	Size of irrep 4 of <iA|bC> integrals:      0.002 (MW) /      0.016 (MB)
	Size of irrep 5 of <iA|bC> integrals:      0.009 (MW) /      0.068 (MB)
	Size of irrep 6 of <iA|bC> integrals:      0.009 (MW) /      0.068 (MB)
	Size of irrep 7 of <iA|bC> integrals:      0.009 (MW) /      0.068 (MB)
	Total:                                     0.069 (MW) /      0.552 (MB)

	Size of irrep 0 of tIjAb amplitudes:       0.001 (MW) /      0.008 (MB)
	Size of irrep 1 of tIjAb amplitudes:       0.000 (MW) /      0.000 (MB)
	Size of irrep 2 of tIjAb amplitudes:       0.000 (MW) /      0.000 (MB)
	Size of irrep 3 of tIjAb amplitudes:       0.000 (MW) /      0.000 (MB)
	Size of irrep 4 of tIjAb amplitudes:       0.000 (MW) /      0.000 (MB)
	Size of irrep 5 of tIjAb amplitudes:       0.001 (MW) /      0.007 (MB)
	Size of irrep 6 of tIjAb amplitudes:       0.001 (MW) /      0.007 (MB)
	Size of irrep 7 of tIjAb amplitudes:       0.001 (MW) /      0.007 (MB)
	Total:                                     0.004 (MW) /      0.028 (MB)

	Nuclear Rep. energy          =      0.00000000000000
	SCF energy                   =   -340.71874118890787
	One-electron energy          =    -10.14409520039679
	Two-electron (AA) energy     =      2.05087367809749
	Two-electron (BB) energy     =      0.00000000000000
	Two-electron (AB) energy     =      1.73674367956052
	Two-electron energy          =      3.78761735765801
	Reference energy             =   -340.71874118890753

*** tstop() called on n412-052.vsc4.prov at Wed Jan 20 20:48:40 2021
Module time:
	user time   =       0.81 seconds =       0.01 minutes
	system time =       0.76 seconds =       0.01 minutes
	total time  =          6 seconds =       0.10 minutes
Total time:
	user time   =      18.72 seconds =       0.31 minutes
	system time =       1.92 seconds =       0.03 minutes
	total time  =         12 seconds =       0.20 minutes
            **************************
            *                        *
            *        CCENERGY        *
            *                        *
            **************************

    Nuclear Rep. energy (wfn)     =    0.000000000000000
    SCF energy          (wfn)     = -340.718741188907870
    Reference energy    (file100) = -340.718741188907529

    Input parameters:
    -----------------
    Wave function   =     CCSD_T
    Reference wfn   =     UHF
    Brueckner       =     No
    Memory (Mbytes) =     250000.0
    Maxiter         =     50
    R_Convergence   =     1.0e-07
    E_Convergence   =     1.0e-06
    Restart         =     Yes
    DIIS            =     Yes
    AO Basis        =     NONE
    ABCD            =     NEW
    Cache Level     =     2
    Cache Type      =     LRU
    Print Level     =     1
    Num. of threads =     48
    # Amps to Print =     10
    Print MP2 Amps? =     No
    Analyze T2 Amps =     No
    Print Pair Ener =     No
    Local CC        =     No
    SCS-MP2         =     False
    SCSN-MP2        =     False
    SCS-CCSD        =     False

MP2 correlation energy -0.0895979645867337
                Solving CC Amplitude Equations
                ------------------------------
  Iter             Energy              RMS        T1Diag      D1Diag    New D1Diag    D2Diag
  ----     ---------------------    ---------   ----------  ----------  ----------   --------
     0        -0.089597964586734    0.000e+00    0.000000    0.000000    0.000000    0.000000
     1        -0.101455626503125    4.149e-02    0.005086    0.000000    0.000000    0.000000
     2        -0.105057444227285    1.260e-02    0.006871    0.000000    0.000000    0.000000
     3        -0.105248210877946    2.414e-03    0.007109    0.000000    0.000000    0.000000
     4        -0.105244383594637    4.651e-04    0.007092    0.000000    0.000000    0.000000
     5        -0.105240446182694    9.148e-05    0.007089    0.000000    0.000000    0.000000
     6        -0.105241016854928    2.601e-05    0.007088    0.000000    0.000000    0.000000
     7        -0.105241045214289    7.907e-06    0.007087    0.000000    0.000000    0.000000
     8        -0.105241002227461    1.746e-06    0.007087    0.000000    0.000000    0.000000
     9        -0.105241005744418    3.927e-07    0.007087    0.000000    0.000000    0.000000
    10        -0.105241006242140    9.656e-08    0.007087    0.000000    0.000000    0.000000

    Iterations converged.

    Largest TIA Amplitudes:
              0   5        -0.0057785024
              1  51         0.0043812768
              3  71         0.0043812753
              2  61         0.0043812737
              0   0         0.0034976728
              0  11         0.0026707788
              1  56        -0.0026634653
              3  76        -0.0026634650
              2  66        -0.0026634647
              1  50        -0.0016760812

    Largest Tia Amplitudes:
              0   0        -0.0079323891
              0   3         0.0068952415
              0  11         0.0006625686
              0  19        -0.0004310414

    Largest TIJAB Amplitudes:
      3   1  30   4        -0.0314264718
      3   2  21   3         0.0312675975
      2   1  39   3        -0.0231646501
      2   1  39   4        -0.0227305939
      3   1  29   4        -0.0193668722
      3   1  30   1        -0.0193545567

      * MP2 total energy                      = -340.808339153494273
      * CCSD total energy                     = -340.823982195149654
      * CCSD(T) total energy                     = -340.828627956903631
*** Psi4 exiting successfully. Buy a developer a beer!
