                               Psi4 1.4a3.dev88

  ==> Input File <==

--------------------------------------------------------------------------
# Any line starting with the # character is a comment line
memory 250000 mb
molecule molecule{
0 4
P          0.0000000000        0.0000000000        0.0000000000
}

set {
  reference uhf
  basis aug-cc-pv(5+d)z
  scf_type OUT_OF_CORE
  freeze_core true
}

energy('ccsd(t)')
--------------------------------------------------------------------------

    Molecular point group: d2h
    Geometry (in Angstrom), charge = 0, multiplicity = 4:

       Center              X                  Y                   Z               Mass
    ------------   -----------------  -----------------  -----------------  -----------------
         P            0.000000000000     0.000000000000     0.000000000000    30.973761998420

  Charge       = 0
  Multiplicity = 4
  Basis Set: AUG-CC-PV(5+D)Z
    Blend: AUG-CC-PV(5+D)Z

    Orbital Energies [Eh]
    ---------------------

    Alpha Occupied:

       1Ag   -79.980301     2Ag    -7.521687     1B1u   -5.421394
       1B3u   -5.421394     1B2u   -5.421394     3Ag    -0.836226
       2B1u   -0.392107     2B3u   -0.392107     2B2u   -0.392107

    Alpha Virtual:

       4Ag     0.059048     3B3u    0.064043     3B1u    0.064043
       3B2u    0.064043     5Ag     0.146905     1B1g    0.146905
       1B3g    0.146905     1B2g    0.146905     6Ag     0.146905
       4B1u    0.308017     4B3u    0.308017     4B2u    0.308017
       7Ag     0.345980     5B3u    0.368535     5B1u    0.368535
       1Au     0.368535     5B2u    0.368535     6B1u    0.368535
       6B3u    0.368535     6B2u    0.368535     2B2g    0.381890
       8Ag     0.381890     2B1g    0.381890     2B3g    0.381890
       9Ag     0.381890     3B2g    0.900507    10Ag     0.900507
       3B3g    0.900507     3B1g    0.900507     4B2g    0.900507
      11Ag     0.900507     4B1g    0.900507     4B3g    0.900507
      12Ag     0.900507    13Ag     0.964228     5B2g    0.964228
       5B1g    0.964228     5B3g    0.964228    14Ag     0.964228
       7B3u    0.976432     7B1u    0.976432     2Au     0.976432
       7B2u    0.976432     8B3u    0.976432     8B1u    0.976432
       8B2u    0.976432     9B3u    1.104292     9B1u    1.104292
       9B2u    1.104292    15Ag     1.320804    10B1u    2.158145
      10B3u    2.158145     3Au     2.158145    10B2u    2.158145
      11B1u    2.158145    11B3u    2.158145    11B2u    2.158145
       4Au     2.158145    12B3u    2.158145    12B1u    2.158145
      12B2u    2.158145    13B3u    2.177509    13B1u    2.177509
      13B2u    2.177509     5Au     2.177509    14B3u    2.177509
      14B1u    2.177509    14B2u    2.177509    16Ag     2.312979
       6B2g    2.312979     6B1g    2.312979     6B3g    2.312979
      17Ag     2.312979     7B2g    2.317724    18Ag     2.317724
       7B1g    2.317724     7B3g    2.317724    19Ag     2.317724
       8B2g    2.317724     8B1g    2.317724     8B3g    2.317724
      20Ag     2.317724    15B1u    3.624610    15B3u    3.624610
      15B2u    3.624610    16B2u    4.590717    16B3u    4.590717
      16B1u    4.590717    17B2u    4.590717     6Au     4.590717
      17B3u    4.590717    17B1u    4.590717    21Ag     4.754208
      22Ag     4.899217     9B1g    4.899217     9B3g    4.899217
      23Ag     4.899217     9B2g    4.899217    18B2u    5.205443
      18B3u    5.205443    18B1u    5.205443    19B2u    5.205443
       7Au     5.205443    19B1u    5.205443    19B3u    5.205443
       8Au     5.205443    20B2u    5.205443    20B3u    5.205443
      20B1u    5.205443    24Ag     5.289623    10B3g    5.289623
      10B1g    5.289623    25Ag     5.289623    10B2g    5.289623
      11B1g    5.289623    11B3g    5.289623    26Ag     5.289623
      11B2g    5.289623    27Ag    13.119893    12B1g   13.119893
      12B3g   13.119893    12B2g   13.119893    28Ag    13.119893
      21B1u   16.620174    21B3u   16.620174    21B2u   16.620174
      29Ag    44.766748

    Beta Occupied:

       1Ag   -79.958565     2Ag    -7.499924     1B2u   -5.380004
       1B3u   -5.380004     1B1u   -5.380004     3Ag    -0.556218

    Beta Virtual:

       2B2u    0.027714     2B3u    0.027714     2B1u    0.027714
       4Ag     0.069218     3B2u    0.095578     3B3u    0.095578
       3B1u    0.095578     5Ag     0.163700     1B2g    0.163700
       1B1g    0.163700     1B3g    0.163700     6Ag     0.163700
       4B2u    0.364364     4B1u    0.364364     4B3u    0.364364
       5B3u    0.376627     5B1u    0.376627     5B2u    0.376627
       1Au     0.376627     6B1u    0.376627     6B3u    0.376627
       6B2u    0.376627     7Ag     0.381276     8Ag     0.470555
       2B1g    0.470555     2B3g    0.470555     9Ag     0.470555
       2B2g    0.470555     3B2g    0.913105    10Ag     0.913105
       3B3g    0.913105     3B1g    0.913105    11Ag     0.913105
       4B2g    0.913105     4B1g    0.913105     4B3g    0.913105
      12Ag     0.913105     7B2u    1.016985     7B3u    1.016985
       7B1u    1.016985     8B2u    1.016985     2Au     1.016985
       8B3u    1.016985     8B1u    1.016985    13Ag     1.037467
       5B1g    1.037467     5B3g    1.037467    14Ag     1.037467
       5B2g    1.037467     9B2u    1.171086     9B3u    1.171086
       9B1u    1.171086    15Ag     1.371342    10B3u    2.178168
      10B1u    2.178168    10B2u    2.178168     3Au     2.178168
      11B1u    2.178168    11B3u    2.178168    11B2u    2.178168
       4Au     2.178168    12B3u    2.178168    12B1u    2.178168
      12B2u    2.178168    13B2u    2.233383    13B3u    2.233383
      13B1u    2.233383    14B2u    2.233383     5Au     2.233383
      14B3u    2.233383    14B1u    2.233383    16Ag     2.348662
       6B1g    2.348662     6B3g    2.348662    17Ag     2.348662
       6B2g    2.348662    18Ag     2.355493     7B1g    2.355493
       7B3g    2.355493    19Ag     2.355493     7B2g    2.355493
       8B1g    2.355493     8B3g    2.355493     8B2g    2.355493
      20Ag     2.355493    15B2u    3.672319    15B1u    3.672319
      15B3u    3.672319    16B2u    4.624561    16B3u    4.624561
      16B1u    4.624561     6Au     4.624561    17B2u    4.624561
      17B3u    4.624561    17B1u    4.624561    21Ag     4.789115
      22Ag     4.922149     9B1g    4.922149     9B3g    4.922149
       9B2g    4.922149    23Ag     4.922149    18B2u    5.237494
      18B3u    5.237494    18B1u    5.237494    19B2u    5.237494
       7Au     5.237494    19B1u    5.237494    19B3u    5.237494
       8Au     5.237495    20B2u    5.237495    20B3u    5.237495
      20B1u    5.237495    24Ag     5.326214    10B3g    5.326214
      10B1g    5.326214    25Ag     5.326214    10B2g    5.326214
      11B1g    5.326214    11B3g    5.326214    26Ag     5.326214
      11B2g    5.326214    27Ag    13.140498    12B1g   13.140498
      12B3g   13.140498    12B2g   13.140498    28Ag    13.140498
      21B2u   16.650481    21B1u   16.650481    21B3u   16.650481
      29Ag    44.783543

    Final Occupation by Irrep:
             Ag   B1g   B2g   B3g    Au   B1u   B2u   B3u
    DOCC [     3,    0,    0,    0,    0,    1,    1,    1 ]
    SOCC [     0,    0,    0,    0,    0,    1,    1,    1 ]

  @UHF Final Energy:  -340.71916003941118

   => Energetics <=

    Nuclear Repulsion Energy =              0.0000000000000000
    One-Electron Energy =                -471.5048860949424352
    Two-Electron Energy =                 130.7857260555312564
    Total Energy =                       -340.7191600394111788

  UHF NO Occupations:
  HONO-2 :    2B1u 1.0000000
  HONO-1 :    2B2u 1.0000000
  HONO-0 :    2B3u 1.0000000
  LUNO+0 :    4 Ag 0.0003252
  LUNO+1 :    3B1u 0.0000056
  LUNO+2 :    3B3u 0.0000056
  LUNO+3 :    3B2u 0.0000056

Computation Completed

Properties will be evaluated at   0.000000,   0.000000,   0.000000 [a0]

Properties computed using the SCF density matrix

  Nuclear Dipole Moment: [e a0]
     X:     0.0000      Y:     0.0000      Z:     0.0000

  Electronic Dipole Moment: [e a0]
     X:     0.0000      Y:     0.0000      Z:     0.0000

  Dipole Moment: [e a0]
     X:     0.0000      Y:     0.0000      Z:     0.0000     Total:     0.0000

  Dipole Moment: [D]
     X:     0.0000      Y:     0.0000      Z:     0.0000     Total:     0.0000

*** tstop() called on n412-041.vsc4.prov at Wed Jan 20 22:02:36 2021
Module time:
	user time   =      35.95 seconds =       0.60 minutes
	system time =       2.89 seconds =       0.05 minutes
	total time  =         26 seconds =       0.43 minutes
Total time:
	user time   =      35.95 seconds =       0.60 minutes
	system time =       2.89 seconds =       0.05 minutes
	total time  =         26 seconds =       0.43 minutes

*** tstart() called on n412-041.vsc4.prov
*** at Wed Jan 20 22:02:36 2021

	Wfn Parameters:
	--------------------
	Wavefunction         = CCSD_T
	Number of irreps     = 8
	Number of MOs        = 136
	Number of active MOs = 131
	AO-Basis             = NONE
	Semicanonical        = false
	Reference            = UHF
	Print Level          = 1

	IRREP	# MOs	# FZDC	# DOCC	# SOCC	# VIRT	# FZVR
	-----	-----	------	------	------	------	------
	 Ag	   29	    2	    1	    0	    26	    0
	 B1g	   12	    0	    0	    0	    12	    0
	 B2g	   12	    0	    0	    0	    12	    0
	 B3g	   12	    0	    0	    0	    12	    0
	 Au	   8	    0	    0	    0	    8	    0
	 B1u	   21	    1	    0	    1	    19	    0
	 B2u	   21	    1	    0	    1	    19	    0
	 B3u	   21	    1	    0	    1	    19	    0
	Transforming integrals...
	IWL integrals will be deleted.
	(OO|OO)...
	Presorting SO-basis two-electron integrals.
	Sorting File: SO Ints (nn|nn) nbuckets = 1
	Constructing frozen core operators
	Starting AA/AB first half-transformation.
	Sorting AA/AB half-transformed integrals.
	Starting BB first half-transformation.
	Sorting BB half-transformed integrals.
	First half integral transformation complete.
	Starting AA second half-transformation.
	Starting AB second half-transformation.
	Starting BB second half-transformation.
	Two-electron integral transformation complete.
	(OO|OV)...
	Starting AA second half-transformation.
	Starting AB second half-transformation.
	Starting BB second half-transformation.
	Two-electron integral transformation complete.
	(OO|VV)...
	Starting AA second half-transformation.
	Starting AB second half-transformation.
	Starting BB second half-transformation.
	Two-electron integral transformation complete.
	(OV|OO)...
	Starting AA/AB first half-transformation.
	Sorting AA/AB half-transformed integrals.
	Starting BB first half-transformation.
	Sorting BB half-transformed integrals.
	First half integral transformation complete.
	Starting AA second half-transformation.
	Starting AB second half-transformation.
	Starting BB second half-transformation.
	Two-electron integral transformation complete.
	(OV|OV)...
	Starting AA second half-transformation.
	Starting AB second half-transformation.
	Starting BB second half-transformation.
	Two-electron integral transformation complete.
	(OV|VV)...
	Starting AA second half-transformation.
	Starting AB second half-transformation.
	Starting BB second half-transformation.
	Two-electron integral transformation complete.
	(VV|OO)...
	Starting AA/AB first half-transformation.
	Sorting AA/AB half-transformed integrals.
	Starting BB first half-transformation.
	Sorting BB half-transformed integrals.
	First half integral transformation complete.
	Starting AA second half-transformation.
	Starting AB second half-transformation.
	Starting BB second half-transformation.
	Two-electron integral transformation complete.
	(VV|OV)...
	Starting AA second half-transformation.
	Starting AB second half-transformation.
	Starting BB second half-transformation.
	Two-electron integral transformation complete.
	(VV|VV)...
	Starting AA second half-transformation.
	Starting AB second half-transformation.
	Starting BB second half-transformation.
	Two-electron integral transformation complete.
	Frozen core energy     =   -334.36246693331088

	Size of irrep 0 of <AB|CD> integrals:      1.132 (MW) /      9.057 (MB)
	Size of irrep 1 of <AB|CD> integrals:      0.939 (MW) /      7.512 (MB)
	Size of irrep 2 of <AB|CD> integrals:      0.939 (MW) /      7.512 (MB)
	Size of irrep 3 of <AB|CD> integrals:      0.939 (MW) /      7.512 (MB)
	Size of irrep 4 of <AB|CD> integrals:      0.796 (MW) /      6.365 (MB)
	Size of irrep 5 of <AB|CD> integrals:      1.094 (MW) /      8.753 (MB)
	Size of irrep 6 of <AB|CD> integrals:      1.094 (MW) /      8.753 (MB)
	Size of irrep 7 of <AB|CD> integrals:      1.094 (MW) /      8.753 (MB)
	Total:                                     8.027 (MW) /     64.216 (MB)

	Size of irrep 0 of <ab|cd> integrals:      1.257 (MW) /     10.053 (MB)
	Size of irrep 1 of <ab|cd> integrals:      1.032 (MW) /      8.258 (MB)
	Size of irrep 2 of <ab|cd> integrals:      1.032 (MW) /      8.258 (MB)
	Size of irrep 3 of <ab|cd> integrals:      1.032 (MW) /      8.258 (MB)
	Size of irrep 4 of <ab|cd> integrals:      0.861 (MW) /      6.889 (MB)
	Size of irrep 5 of <ab|cd> integrals:      1.201 (MW) /      9.610 (MB)
	Size of irrep 6 of <ab|cd> integrals:      1.201 (MW) /      9.610 (MB)
	Size of irrep 7 of <ab|cd> integrals:      1.201 (MW) /      9.610 (MB)
	Total:                                     8.818 (MW) /     70.546 (MB)

	Size of irrep 0 of <Ab|Cd> integrals:      5.345 (MW) /     42.763 (MB)
	Size of irrep 1 of <Ab|Cd> integrals:      3.936 (MW) /     31.490 (MB)
	Size of irrep 2 of <Ab|Cd> integrals:      3.936 (MW) /     31.490 (MB)
	Size of irrep 3 of <Ab|Cd> integrals:      3.936 (MW) /     31.490 (MB)
	Size of irrep 4 of <Ab|Cd> integrals:      3.312 (MW) /     26.499 (MB)
	Size of irrep 5 of <Ab|Cd> integrals:      4.588 (MW) /     36.705 (MB)
	Size of irrep 6 of <Ab|Cd> integrals:      4.588 (MW) /     36.705 (MB)
	Size of irrep 7 of <Ab|Cd> integrals:      4.588 (MW) /     36.705 (MB)
	Total:                                    34.231 (MW) /    273.848 (MB)

	Size of irrep 0 of <IA|BC> integrals:      0.187 (MW) /      1.497 (MB)
	Size of irrep 1 of <IA|BC> integrals:      0.112 (MW) /      0.899 (MB)
	Size of irrep 2 of <IA|BC> integrals:      0.112 (MW) /      0.899 (MB)
	Size of irrep 3 of <IA|BC> integrals:      0.112 (MW) /      0.899 (MB)
	Size of irrep 4 of <IA|BC> integrals:      0.078 (MW) /      0.628 (MB)
	Size of irrep 5 of <IA|BC> integrals:      0.144 (MW) /      1.155 (MB)
	Size of irrep 6 of <IA|BC> integrals:      0.144 (MW) /      1.155 (MB)
	Size of irrep 7 of <IA|BC> integrals:      0.144 (MW) /      1.155 (MB)
	Total:                                     1.036 (MW) /      8.287 (MB)

	Size of irrep 0 of <ia|bc> integrals:      0.062 (MW) /      0.493 (MB)
	Size of irrep 1 of <ia|bc> integrals:      0.024 (MW) /      0.195 (MB)
	Size of irrep 2 of <ia|bc> integrals:      0.024 (MW) /      0.195 (MB)
	Size of irrep 3 of <ia|bc> integrals:      0.024 (MW) /      0.195 (MB)
	Size of irrep 4 of <ia|bc> integrals:      0.015 (MW) /      0.119 (MB)
	Size of irrep 5 of <ia|bc> integrals:      0.044 (MW) /      0.351 (MB)
	Size of irrep 6 of <ia|bc> integrals:      0.044 (MW) /      0.351 (MB)
	Size of irrep 7 of <ia|bc> integrals:      0.044 (MW) /      0.351 (MB)
	Total:                                     0.281 (MW) /      2.250 (MB)

	Size of irrep 0 of <Ia|Bc> integrals:      0.199 (MW) /      1.591 (MB)
	Size of irrep 1 of <Ia|Bc> integrals:      0.119 (MW) /      0.952 (MB)
	Size of irrep 2 of <Ia|Bc> integrals:      0.119 (MW) /      0.952 (MB)
	Size of irrep 3 of <Ia|Bc> integrals:      0.119 (MW) /      0.952 (MB)
	Size of irrep 4 of <Ia|Bc> integrals:      0.080 (MW) /      0.641 (MB)
	Size of irrep 5 of <Ia|Bc> integrals:      0.150 (MW) /      1.200 (MB)
	Size of irrep 6 of <Ia|Bc> integrals:      0.150 (MW) /      1.200 (MB)
	Size of irrep 7 of <Ia|Bc> integrals:      0.150 (MW) /      1.200 (MB)
	Total:                                     1.086 (MW) /      8.687 (MB)

	Size of irrep 0 of <iA|bC> integrals:      0.060 (MW) /      0.481 (MB)
	Size of irrep 1 of <iA|bC> integrals:      0.024 (MW) /      0.190 (MB)
	Size of irrep 2 of <iA|bC> integrals:      0.024 (MW) /      0.190 (MB)
	Size of irrep 3 of <iA|bC> integrals:      0.024 (MW) /      0.190 (MB)
	Size of irrep 4 of <iA|bC> integrals:      0.015 (MW) /      0.116 (MB)
	Size of irrep 5 of <iA|bC> integrals:      0.041 (MW) /      0.326 (MB)
	Size of irrep 6 of <iA|bC> integrals:      0.041 (MW) /      0.326 (MB)
	Size of irrep 7 of <iA|bC> integrals:      0.041 (MW) /      0.326 (MB)
	Total:                                     0.268 (MW) /      2.146 (MB)

	Size of irrep 0 of tIjAb amplitudes:       0.002 (MW) /      0.018 (MB)
	Size of irrep 1 of tIjAb amplitudes:       0.000 (MW) /      0.000 (MB)
	Size of irrep 2 of tIjAb amplitudes:       0.000 (MW) /      0.000 (MB)
	Size of irrep 3 of tIjAb amplitudes:       0.000 (MW) /      0.000 (MB)
	Size of irrep 4 of tIjAb amplitudes:       0.000 (MW) /      0.000 (MB)
	Size of irrep 5 of tIjAb amplitudes:       0.002 (MW) /      0.017 (MB)
	Size of irrep 6 of tIjAb amplitudes:       0.002 (MW) /      0.017 (MB)
	Size of irrep 7 of tIjAb amplitudes:       0.002 (MW) /      0.017 (MB)
	Total:                                     0.009 (MW) /      0.070 (MB)

	Nuclear Rep. energy          =      0.00000000000000
	SCF energy                   =   -340.71916003941118
	One-electron energy          =    -10.14462119095455
	Two-electron (AA) energy     =      2.05110658884069
	Two-electron (BB) energy     =      0.00000000000000
	Two-electron (AB) energy     =      1.73682149601378
	Two-electron energy          =      3.78792808485447
	Reference energy             =   -340.71916003941095

*** tstop() called on n412-041.vsc4.prov at Wed Jan 20 22:02:56 2021
Module time:
	user time   =       4.42 seconds =       0.07 minutes
	system time =       2.74 seconds =       0.05 minutes
	total time  =         20 seconds =       0.33 minutes
Total time:
	user time   =      40.37 seconds =       0.67 minutes
	system time =       5.63 seconds =       0.09 minutes
	total time  =         46 seconds =       0.77 minutes
            **************************
            *                        *
            *        CCENERGY        *
            *                        *
            **************************

    Nuclear Rep. energy (wfn)     =    0.000000000000000
    SCF energy          (wfn)     = -340.719160039411179
    Reference energy    (file100) = -340.719160039410951

    Input parameters:
    -----------------
    Wave function   =     CCSD_T
    Reference wfn   =     UHF
    Brueckner       =     No
    Memory (Mbytes) =     250000.0
    Maxiter         =     50
    R_Convergence   =     1.0e-07
    E_Convergence   =     1.0e-06
    Restart         =     Yes
    DIIS            =     Yes
    AO Basis        =     NONE
    ABCD            =     NEW
    Cache Level     =     2
    Cache Type      =     LRU
    Print Level     =     1
    Num. of threads =     48
    # Amps to Print =     10
    Print MP2 Amps? =     No
    Analyze T2 Amps =     No
    Print Pair Ener =     No
    Local CC        =     No
    SCS-MP2         =     False
    SCSN-MP2        =     False
    SCS-CCSD        =     False

MP2 correlation energy -0.0921012977470661
                Solving CC Amplitude Equations
                ------------------------------
  Iter             Energy              RMS        T1Diag      D1Diag    New D1Diag    D2Diag
  ----     ---------------------    ---------   ----------  ----------  ----------   --------
     0        -0.092101297747066    0.000e+00    0.000000    0.000000    0.000000    0.000000
     1        -0.102669369972913    4.087e-02    0.005553    0.000000    0.000000    0.000000
     2        -0.106398531659594    1.266e-02    0.007259    0.000000    0.000000    0.000000
     3        -0.106519191437642    2.372e-03    0.007511    0.000000    0.000000    0.000000
     4        -0.106539855587229    5.345e-04    0.007497    0.000000    0.000000    0.000000
     5        -0.106534041069464    1.197e-04    0.007491    0.000000    0.000000    0.000000
     6        -0.106534058541201    2.704e-05    0.007490    0.000000    0.000000    0.000000
     7        -0.106534229316626    8.225e-06    0.007490    0.000000    0.000000    0.000000

      * MP2 total energy                      = -340.811261337158044
      * CCSD total energy                     = -340.825694222478774
      * CCSD(T) total energy                     = -340.830516307552330
*** Psi4 exiting successfully. Buy a developer a beer!
