                               Psi4 1.4a3.dev88

  ==> Input File <==

--------------------------------------------------------------------------
# Any line starting with the # character is a comment line
memory 250000 mb
molecule molecule{
0 4
P          0.0000000000        0.0000000000        0.0000000000
}

set {
  reference uhf
  basis aug-cc-pV(t+d)Z
  scf_type OUT_OF_CORE
  freeze_core true
}

energy('ccsd(t)')
--------------------------------------------------------------------------

    Molecular point group: d2h
    Geometry (in Angstrom), charge = 0, multiplicity = 4:

       Center              X                  Y                   Z               Mass
    ------------   -----------------  -----------------  -----------------  -----------------
         P            0.000000000000     0.000000000000     0.000000000000    30.973761998420

  Charge       = 0
  Multiplicity = 4
  Basis Set: AUG-CC-PV(T+D)Z
    Blend: AUG-CC-PV(T+D)Z

    Orbital Energies [Eh]
    ---------------------

    Alpha Occupied:

       1Ag   -79.980605     2Ag    -7.522535     1B1u   -5.421252
       1B3u   -5.421252     1B2u   -5.421252     3Ag    -0.836479
       2B1u   -0.392176     2B3u   -0.392176     2B2u   -0.392176

    Alpha Virtual:

       4Ag     0.081250     3B1u    0.085233     3B3u    0.085233
       3B2u    0.085233     1B1g    0.194163     5Ag     0.194163
       1B3g    0.194163     1B2g    0.194163     6Ag     0.194163
       4B1u    0.490009     4B3u    0.490009     4B2u    0.490009
       7Ag     0.543834     2B2g    0.543834     2B3g    0.543834
       2B1g    0.543834     8Ag     0.543834     9Ag     0.588276
       5B3u    0.639093     5B2u    0.639093     1Au     0.639093
       5B1u    0.639093     6B2u    0.639093     6B3u    0.639093
       6B1u    0.639093    10Ag     1.573277     3B2g    1.573277
       3B3g    1.573277    11Ag     1.573277     3B1g    1.573277
       7B1u    1.853831     7B3u    1.853831     7B2u    1.853831
       2Au     1.853831     8B1u    1.853831     8B2u    1.853831
       8B3u    1.853831     9B1u    2.269600     9B3u    2.269600
       9B2u    2.269600    12Ag     3.308322     4B1g    6.192694
      13Ag     6.192694     4B3g    6.192694     4B2g    6.192694
      14Ag     6.192694

    Beta Occupied:

       1Ag   -79.960712     2Ag    -7.500582     1B3u   -5.381175
       1B2u   -5.381175     1B1u   -5.381175     3Ag    -0.556877

    Beta Virtual:

       2B3u    0.029937     2B2u    0.029937     2B1u    0.029937
       4Ag     0.097653     3B2u    0.125826     3B3u    0.125826
       3B1u    0.125826     5Ag     0.232890     1B2g    0.232890
       1B3g    0.232890     6Ag     0.232890     1B1g    0.232890
       4B2u    0.566196     4B3u    0.566196     4B1u    0.566196
       7Ag     0.642096     8Ag     0.653214     2B1g    0.653214
       2B3g    0.653214     2B2g    0.653214     9Ag     0.653214
       5B1u    0.669512     5B3u    0.669512     5B2u    0.669512
       6B1u    0.669512     1Au     0.669512     6B2u    0.669512
       6B3u    0.669512    10Ag     1.626955     3B1g    1.626955
       3B3g    1.626955     3B2g    1.626955    11Ag     1.626955
       7B2u    1.922972     7B3u    1.922972     7B1u    1.922972
       2Au     1.922972     8B2u    1.922972     8B3u    1.922972
       8B1u    1.922972     9B2u    2.334033     9B3u    2.334033
       9B1u    2.334033    12Ag     3.350803     4B1g    6.209951
      13Ag     6.209951     4B2g    6.209951     4B3g    6.209951
      14Ag     6.209951

    Final Occupation by Irrep:
             Ag   B1g   B2g   B3g    Au   B1u   B2u   B3u
    DOCC [     3,    0,    0,    0,    0,    1,    1,    1 ]
    SOCC [     0,    0,    0,    0,    0,    1,    1,    1 ]

  @UHF Final Energy:  -340.71649154999648

   => Energetics <=

    Nuclear Repulsion Energy =              0.0000000000000000
    One-Electron Energy =                -471.4913863304213919
    Two-Electron Energy =                 130.7748947804249156
    Total Energy =                       -340.7164915499964764

  UHF NO Occupations:
  HONO-2 :    2B3u 1.0000000
  HONO-1 :    2B2u 1.0000000
  HONO-0 :    2B1u 1.0000000
  LUNO+0 :    4 Ag 0.0002856
  LUNO+1 :    3B3u 0.0000038
  LUNO+2 :    3B2u 0.0000038
  LUNO+3 :    3B1u 0.0000038

Computation Completed

Properties will be evaluated at   0.000000,   0.000000,   0.000000 [a0]

Properties computed using the SCF density matrix

  Nuclear Dipole Moment: [e a0]
     X:     0.0000      Y:     0.0000      Z:     0.0000

  Electronic Dipole Moment: [e a0]
     X:     0.0000      Y:     0.0000      Z:     0.0000

  Dipole Moment: [e a0]
     X:     0.0000      Y:     0.0000      Z:     0.0000     Total:     0.0000

  Dipole Moment: [D]
     X:     0.0000      Y:     0.0000      Z:     0.0000     Total:     0.0000

*** tstop() called on n412-040.vsc4.prov at Tue Jan 26 18:04:23 2021
Module time:
	user time   =      11.85 seconds =       0.20 minutes
	system time =       1.10 seconds =       0.02 minutes
	total time  =          3 seconds =       0.05 minutes
Total time:
	user time   =      11.85 seconds =       0.20 minutes
	system time =       1.10 seconds =       0.02 minutes
	total time  =          3 seconds =       0.05 minutes

*** tstart() called on n412-040.vsc4.prov
*** at Tue Jan 26 18:04:23 2021

	Wfn Parameters:
	--------------------
	Wavefunction         = CCSD_T
	Number of irreps     = 8
	Number of MOs        = 55
	Number of active MOs = 50
	AO-Basis             = NONE
	Semicanonical        = false
	Reference            = UHF
	Print Level          = 1

	IRREP	# MOs	# FZDC	# DOCC	# SOCC	# VIRT	# FZVR
	-----	-----	------	------	------	------	------
	 Ag	   14	    2	    1	    0	    11	    0
	 B1g	   4	    0	    0	    0	    4	    0
	 B2g	   4	    0	    0	    0	    4	    0
	 B3g	   4	    0	    0	    0	    4	    0
	 Au	   2	    0	    0	    0	    2	    0
	 B1u	   9	    1	    0	    1	    7	    0
	 B2u	   9	    1	    0	    1	    7	    0
	 B3u	   9	    1	    0	    1	    7	    0
	Transforming integrals...
	IWL integrals will be deleted.
	(OO|OO)...
	Presorting SO-basis two-electron integrals.
	Sorting File: SO Ints (nn|nn) nbuckets = 1
	Constructing frozen core operators
	Starting AA/AB first half-transformation.
	Sorting AA/AB half-transformed integrals.
	Starting BB first half-transformation.
	Sorting BB half-transformed integrals.
	First half integral transformation complete.
	Starting AA second half-transformation.
	Starting AB second half-transformation.
	Starting BB second half-transformation.
	Two-electron integral transformation complete.
	(OO|OV)...
	Starting AA second half-transformation.
	Starting AB second half-transformation.
	Starting BB second half-transformation.
	Two-electron integral transformation complete.
	(OO|VV)...
	Starting AA second half-transformation.
	Starting AB second half-transformation.
	Starting BB second half-transformation.
	Two-electron integral transformation complete.
	(OV|OO)...
	Starting AA/AB first half-transformation.
	Sorting AA/AB half-transformed integrals.
	Starting BB first half-transformation.
	Sorting BB half-transformed integrals.
	First half integral transformation complete.
	Starting AA second half-transformation.
	Starting AB second half-transformation.
	Starting BB second half-transformation.
	Two-electron integral transformation complete.
	(OV|OV)...
	Starting AA second half-transformation.
	Starting AB second half-transformation.
	Starting BB second half-transformation.
	Two-electron integral transformation complete.
	(OV|VV)...
	Starting AA second half-transformation.
	Starting AB second half-transformation.
	Starting BB second half-transformation.
	Two-electron integral transformation complete.
	(VV|OO)...
	Starting AA/AB first half-transformation.
	Sorting AA/AB half-transformed integrals.
	Starting BB first half-transformation.
	Sorting BB half-transformed integrals.
	First half integral transformation complete.
	Starting AA second half-transformation.
	Starting AB second half-transformation.
	Starting BB second half-transformation.
	Two-electron integral transformation complete.
	(VV|OV)...
	Starting AA second half-transformation.
	Starting AB second half-transformation.
	Starting BB second half-transformation.
	Two-electron integral transformation complete.
	(VV|VV)...
	Starting AA second half-transformation.
	Starting AB second half-transformation.
	Starting BB second half-transformation.
	Two-electron integral transformation complete.
	Frozen core energy     =   -334.36037438844835

	Size of irrep 0 of <AB|CD> integrals:      0.019 (MW) /      0.150 (MB)
	Size of irrep 1 of <AB|CD> integrals:      0.015 (MW) /      0.121 (MB)
	Size of irrep 2 of <AB|CD> integrals:      0.015 (MW) /      0.121 (MB)
	Size of irrep 3 of <AB|CD> integrals:      0.015 (MW) /      0.121 (MB)
	Size of irrep 4 of <AB|CD> integrals:      0.011 (MW) /      0.090 (MB)
	Size of irrep 5 of <AB|CD> integrals:      0.020 (MW) /      0.159 (MB)
	Size of irrep 6 of <AB|CD> integrals:      0.020 (MW) /      0.159 (MB)
	Size of irrep 7 of <AB|CD> integrals:      0.020 (MW) /      0.159 (MB)
	Total:                                     0.135 (MW) /      1.080 (MB)

	Size of irrep 0 of <ab|cd> integrals:      0.025 (MW) /      0.200 (MB)
	Size of irrep 1 of <ab|cd> integrals:      0.020 (MW) /      0.157 (MB)
	Size of irrep 2 of <ab|cd> integrals:      0.020 (MW) /      0.157 (MB)
	Size of irrep 3 of <ab|cd> integrals:      0.020 (MW) /      0.157 (MB)
	Size of irrep 4 of <ab|cd> integrals:      0.014 (MW) /      0.111 (MB)
	Size of irrep 5 of <ab|cd> integrals:      0.026 (MW) /      0.205 (MB)
	Size of irrep 6 of <ab|cd> integrals:      0.026 (MW) /      0.205 (MB)
	Size of irrep 7 of <ab|cd> integrals:      0.026 (MW) /      0.205 (MB)
	Total:                                     0.174 (MW) /      1.396 (MB)

	Size of irrep 0 of <Ab|Cd> integrals:      0.116 (MW) /      0.930 (MB)
	Size of irrep 1 of <Ab|Cd> integrals:      0.069 (MW) /      0.549 (MB)
	Size of irrep 2 of <Ab|Cd> integrals:      0.069 (MW) /      0.549 (MB)
	Size of irrep 3 of <Ab|Cd> integrals:      0.069 (MW) /      0.549 (MB)
	Size of irrep 4 of <Ab|Cd> integrals:      0.050 (MW) /      0.401 (MB)
	Size of irrep 5 of <Ab|Cd> integrals:      0.091 (MW) /      0.725 (MB)
	Size of irrep 6 of <Ab|Cd> integrals:      0.091 (MW) /      0.725 (MB)
	Size of irrep 7 of <Ab|Cd> integrals:      0.091 (MW) /      0.725 (MB)
	Total:                                     0.644 (MW) /      5.154 (MB)

	Size of irrep 0 of <IA|BC> integrals:      0.010 (MW) /      0.082 (MB)
	Size of irrep 1 of <IA|BC> integrals:      0.005 (MW) /      0.039 (MB)
	Size of irrep 2 of <IA|BC> integrals:      0.005 (MW) /      0.039 (MB)
	Size of irrep 3 of <IA|BC> integrals:      0.005 (MW) /      0.039 (MB)
	Size of irrep 4 of <IA|BC> integrals:      0.003 (MW) /      0.024 (MB)
	Size of irrep 5 of <IA|BC> integrals:      0.007 (MW) /      0.059 (MB)
	Size of irrep 6 of <IA|BC> integrals:      0.007 (MW) /      0.059 (MB)
	Size of irrep 7 of <IA|BC> integrals:      0.007 (MW) /      0.059 (MB)
	Total:                                     0.050 (MW) /      0.400 (MB)

	Size of irrep 0 of <ia|bc> integrals:      0.004 (MW) /      0.032 (MB)
	Size of irrep 1 of <ia|bc> integrals:      0.001 (MW) /      0.009 (MB)
	Size of irrep 2 of <ia|bc> integrals:      0.001 (MW) /      0.009 (MB)
	Size of irrep 3 of <ia|bc> integrals:      0.001 (MW) /      0.009 (MB)
	Size of irrep 4 of <ia|bc> integrals:      0.000 (MW) /      0.004 (MB)
	Size of irrep 5 of <ia|bc> integrals:      0.003 (MW) /      0.020 (MB)
	Size of irrep 6 of <ia|bc> integrals:      0.003 (MW) /      0.020 (MB)
	Size of irrep 7 of <ia|bc> integrals:      0.003 (MW) /      0.020 (MB)
	Total:                                     0.016 (MW) /      0.124 (MB)

	Size of irrep 0 of <Ia|Bc> integrals:      0.012 (MW) /      0.095 (MB)
	Size of irrep 1 of <Ia|Bc> integrals:      0.006 (MW) /      0.046 (MB)
	Size of irrep 2 of <Ia|Bc> integrals:      0.006 (MW) /      0.046 (MB)
	Size of irrep 3 of <Ia|Bc> integrals:      0.006 (MW) /      0.046 (MB)
	Size of irrep 4 of <Ia|Bc> integrals:      0.003 (MW) /      0.025 (MB)
	Size of irrep 5 of <Ia|Bc> integrals:      0.008 (MW) /      0.065 (MB)
	Size of irrep 6 of <Ia|Bc> integrals:      0.008 (MW) /      0.065 (MB)
	Size of irrep 7 of <Ia|Bc> integrals:      0.008 (MW) /      0.065 (MB)
	Total:                                     0.057 (MW) /      0.454 (MB)

	Size of irrep 0 of <iA|bC> integrals:      0.004 (MW) /      0.030 (MB)
	Size of irrep 1 of <iA|bC> integrals:      0.001 (MW) /      0.008 (MB)
	Size of irrep 2 of <iA|bC> integrals:      0.001 (MW) /      0.008 (MB)
	Size of irrep 3 of <iA|bC> integrals:      0.001 (MW) /      0.008 (MB)
	Size of irrep 4 of <iA|bC> integrals:      0.000 (MW) /      0.004 (MB)
	Size of irrep 5 of <iA|bC> integrals:      0.002 (MW) /      0.017 (MB)
	Size of irrep 6 of <iA|bC> integrals:      0.002 (MW) /      0.017 (MB)
	Size of irrep 7 of <iA|bC> integrals:      0.002 (MW) /      0.017 (MB)
	Total:                                     0.014 (MW) /      0.109 (MB)

	Size of irrep 0 of tIjAb amplitudes:       0.000 (MW) /      0.003 (MB)
	Size of irrep 1 of tIjAb amplitudes:       0.000 (MW) /      0.000 (MB)
	Size of irrep 2 of tIjAb amplitudes:       0.000 (MW) /      0.000 (MB)
	Size of irrep 3 of tIjAb amplitudes:       0.000 (MW) /      0.000 (MB)
	Size of irrep 4 of tIjAb amplitudes:       0.000 (MW) /      0.000 (MB)
	Size of irrep 5 of tIjAb amplitudes:       0.000 (MW) /      0.002 (MB)
	Size of irrep 6 of tIjAb amplitudes:       0.000 (MW) /      0.002 (MB)
	Size of irrep 7 of tIjAb amplitudes:       0.000 (MW) /      0.002 (MB)
	Total:                                     0.001 (MW) /      0.010 (MB)

	Nuclear Rep. energy          =      0.00000000000000
	SCF energy                   =   -340.71649154999648
	One-electron energy          =    -10.14235159255533
	Two-electron (AA) energy     =      2.04979068892989
	Two-electron (BB) energy     =      0.00000000000000
	Two-electron (AB) energy     =      1.73644374207684
	Two-electron energy          =      3.78623443100673
	Reference energy             =   -340.71649154999693

*** tstop() called on n412-040.vsc4.prov at Tue Jan 26 18:04:25 2021
Module time:
	user time   =       0.17 seconds =       0.00 minutes
	system time =       0.23 seconds =       0.00 minutes
	total time  =          2 seconds =       0.03 minutes
Total time:
	user time   =      12.02 seconds =       0.20 minutes
	system time =       1.33 seconds =       0.02 minutes
	total time  =          5 seconds =       0.08 minutes
            **************************
            *                        *
            *        CCENERGY        *
            *                        *
            **************************

    Nuclear Rep. energy (wfn)     =    0.000000000000000
    SCF energy          (wfn)     = -340.716491549996476
    Reference energy    (file100) = -340.716491549996931

    Input parameters:
    -----------------
    Wave function   =     CCSD_T
    Reference wfn   =     UHF
    Brueckner       =     No
    Memory (Mbytes) =     250000.0
    Maxiter         =     50
    R_Convergence   =     1.0e-07
    E_Convergence   =     1.0e-06
    Restart         =     Yes
    DIIS            =     Yes
    AO Basis        =     NONE
    ABCD            =     NEW
    Cache Level     =     2
    Cache Type      =     LRU
    Print Level     =     1
    Num. of threads =     48
    # Amps to Print =     10
    Print MP2 Amps? =     No
    Analyze T2 Amps =     No
    Print Pair Ener =     No
    Local CC        =     No
    SCS-MP2         =     False
    SCSN-MP2        =     False
    SCS-CCSD        =     False

MP2 correlation energy -0.0844348139036535
                Solving CC Amplitude Equations
                ------------------------------
  Iter             Energy              RMS        T1Diag      D1Diag    New D1Diag    D2Diag
  ----     ---------------------    ---------   ----------  ----------  ----------   --------
     0        -0.084434813903654    0.000e+00    0.000000    0.000000    0.000000    0.000000
     1        -0.098212661835061    4.364e-02    0.004246    0.000000    0.000000    0.000000
     2        -0.102004840419631    1.282e-02    0.006010    0.000000    0.000000    0.000000
     3        -0.102215742929542    2.516e-03    0.006263    0.000000    0.000000    0.000000
     4        -0.102212148863964    4.907e-04    0.006256    0.000000    0.000000    0.000000
     5        -0.102207940429329    7.348e-05    0.006251    0.000000    0.000000    0.000000
     6        -0.102209112696121    2.226e-05    0.006249    0.000000    0.000000    0.000000
     7        -0.102209016649672    6.559e-06    0.006249    0.000000    0.000000    0.000000
     8        -0.102208949135616    1.463e-06    0.006249    0.000000    0.000000    0.000000
     9        -0.102208966130201    2.541e-07    0.006249    0.000000    0.000000    0.000000
    10        -0.102208966116821    4.469e-08    0.006249    0.000000    0.000000    0.000000

    Iterations converged.

    Largest TIA Amplitudes:
              0   5         0.0056098310
              2  33         0.0040895224
              3  40         0.0040895224
              1  26         0.0040895206
              0   0        -0.0037645817
              2  32        -0.0015247578
              3  39        -0.0015247578
              1  25        -0.0015247558
              2  38        -0.0013606917
              3  45        -0.0013606917

    Largest Tia Amplitudes:
              0   0         0.0081815573
              0   3        -0.0042151747
              0   8        -0.0010716951

    Largest TIJAB Amplitudes:
      3   2  12   4         0.0288541860
      3   1  16   3        -0.0249910443
      2   1  20   3        -0.0249858737
      3   2  11   1         0.0239054548
      3   2  11   4         0.0234355877
      3   2  12   1         0.0234355791
      3   1  15   2        -0.0207131695
      2   1  19   2        -0.0206922913
      3   1  16   2        -0.0203060409
      3   1  15   3        -0.0202979145

    Largest TIjAb Amplitudes:
      1   0   3  25        -0.0384408540
      1   0   3  26        -0.0343798502
      2   0   4  33         0.0332942038
      1   0  16  41        -0.0332907602
      1   0  20  33        -0.0332907602
      2   0  12  41        -0.0332907602
      3   0  12  33        -0.0332907602
      2   0  20  25        -0.0332907573
      3   0  16  25        -0.0332907573
      3   0   4  41        -0.0332873154

    SCF energy       (wfn)                    = -340.716491549996476
    Reference energy (file100)                = -340.716491549996931

    Opposite-spin MP2 correlation energy      =   -0.061278875790556
    Same-spin MP2 correlation energy          =   -0.023155938113098
    Singles MP2 correlation energy            =   -0.000000000000000

      * MP2 total energy                      = -340.800926363900601
      * CCSD total energy                     = -340.818700516113779
      * CCSD(T) total energy                     = -340.822778648430699
*** Psi4 exiting successfully. Buy a developer a beer!
