                               Psi4 1.4a3.dev88

  ==> Input File <==

--------------------------------------------------------------------------
# Any line starting with the # character is a comment line
memory 250000 mb
molecule molecule{
0 4
P          0.0000000000        0.0000000000        0.0000000000
}

set {
  reference uhf
  basis aug-cc-pV(6+d)Z
  scf_type OUT_OF_CORE
  freeze_core true
}

energy('ccsd(t)')
--------------------------------------------------------------------------

    Molecular point group: d2h
    Geometry (in Angstrom), charge = 0, multiplicity = 4:

       Center              X                  Y                   Z               Mass
    ------------   -----------------  -----------------  -----------------  -----------------
         P            0.000000000000     0.000000000000     0.000000000000    30.973761998420

  Charge       = 0
  Multiplicity = 4
  Basis Set: AUG-CC-PV(6+D)Z
    Blend: AUG-CC-PV(6+D)Z

    Orbital Energies [Eh]
    ---------------------

    Alpha Occupied:

       1Ag   -79.980217     2Ag    -7.521753     1B3u   -5.421440
       1B1u   -5.421440     1B2u   -5.421440     3Ag    -0.836221
       2B3u   -0.392105     2B1u   -0.392105     2B2u   -0.392105

    Alpha Virtual:

       3B3u    0.052863     3B1u    0.052863     3B2u    0.052863
       4Ag     0.055149     5Ag     0.139994     1B3g    0.139994
       1B1g    0.139994     1B2g    0.139994     6Ag     0.139994
       4B3u    0.236084     4B1u    0.236084     4B2u    0.236084
       7Ag     0.312350     5B3u    0.341107     5B1u    0.341107
       5B2u    0.341107     6B3u    0.341107     1Au     0.341107
       6B2u    0.341107     6B1u    0.341107     8Ag     0.360702
       2B2g    0.360702     2B1g    0.360702     9Ag     0.360702
       2B3g    0.360702    10Ag     0.706657     3B2g    0.706657
       3B1g    0.706657    11Ag     0.706657     3B3g    0.706657
       4B1g    0.706657     4B2g    0.706657    12Ag     0.706657
       4B3g    0.706657     7B3u    0.769845     7B1u    0.769845
       7B2u    0.769845    13Ag     0.893063     5B2g    0.893063
       5B1g    0.893063     5B3g    0.893063    14Ag     0.893063
       8B3u    0.915265     8B1u    0.915265     8B2u    0.915265
       9B3u    0.915265     2Au     0.915265     9B2u    0.915265
       9B1u    0.915265    15Ag     1.120249    10B3u    1.623860
      10B1u    1.623860    10B2u    1.623860     3Au     1.623860
      11B3u    1.623860    11B1u    1.623860    11B2u    1.623860
       4Au     1.623860    12B3u    1.623860    12B2u    1.623860
      12B1u    1.623860    16Ag     1.745483     6B2g    1.745483
       6B1g    1.745483     6B3g    1.745483    17Ag     1.745483
       7B1g    1.745483     7B2g    1.745483    18Ag     1.745483
       7B3g    1.745483    13B3u    2.019765    13B1u    2.019765
      13B2u    2.019765     5Au     2.019765    14B3u    2.019765
      14B1u    2.019765    14B2u    2.019765    19Ag     2.072464
       8B2g    2.072464     8B1g    2.072464     8B3g    2.072464
      20Ag     2.072464    15B3u    2.197942    15B1u    2.197942
      15B2u    2.197942    21Ag     3.408961     9B3g    3.408961
       9B2g    3.408961     9B1g    3.408961    22Ag     3.408961
      10B3g    3.408961    10B2g    3.408961    10B1g    3.408961
      11B3g    3.408961    23Ag     3.408961    11B1g    3.408961
      11B2g    3.408961    24Ag     3.408961    25Ag     3.425968
      26Ag     3.614750    12B3g    3.614750    12B2g    3.614750
      12B1g    3.614750    13B3g    3.614750    27Ag     3.614750
      13B1g    3.614750    13B2g    3.614750    28Ag     3.614750
      16B2u    3.715036    16B1u    3.715036    16B3u    3.715036
       6Au     3.715036    17B1u    3.715036    17B2u    3.715036
       7Au     3.715036    17B3u    3.715036    18B2u    3.715036
      18B1u    3.715036    18B3u    3.715036    19B1u    4.292147
      19B2u    4.292147     8Au     4.292147    19B3u    4.292147
      20B2u    4.292147    20B1u    4.292147    20B3u    4.292147
      14B3g    4.443512    29Ag     4.443512    14B1g    4.443512
      14B2g    4.443512    30Ag     4.443512    21B3u    6.196637
      21B1u    6.196637    21B2u    6.196637    31Ag     7.112051
      15B3g    7.112051    15B1g    7.112051    15B2g    7.112051
      16B3g    7.112051    32Ag     7.112051    16B1g    7.112051
      16B2g    7.112051    33Ag     7.112051    34Ag     7.510190
      17B3g    7.510190    17B1g    7.510190    17B2g    7.510190
      35Ag     7.510190    18B3g    7.510190    18B2g    7.510190
      18B1g    7.510190    36Ag     7.510190    19B3g    7.510190
      19B1g    7.510190    19B2g    7.510190    37Ag     7.510190
      22B2u    7.890723    22B1u    7.890723    22B3u    7.890723
       9Au     7.890723    23B2u    7.890723    23B1u    7.890723
      23B3u    7.890723    10Au     7.890723    24B2u    7.890723
      24B1u    7.890723    24B3u    7.890723    25B1u    9.045325
      25B2u    9.045325    25B3u    9.045325    11Au     9.045325
      26B2u    9.045325    26B1u    9.045325    26B3u    9.045325
      20B3g    9.252007    38Ag     9.252007    20B1g    9.252007
      20B2g    9.252007    39Ag     9.252007    40Ag    10.484358
      27B3u   25.759107    27B1u   25.759107    27B2u   25.759107
      21B3g   25.874499    41Ag    25.874499    21B1g   25.874499
      21B2g   25.874499    42Ag    25.874499    43Ag   209.125439

    Beta Occupied:

       1Ag   -79.958555     2Ag    -7.499775     1B2u   -5.379896
       1B1u   -5.379896     1B3u   -5.379896     3Ag    -0.556173

    Beta Virtual:

       2B2u    0.025961     2B1u    0.025961     2B3u    0.025961
       4Ag     0.064393     3B2u    0.080178     3B1u    0.080178
       3B3u    0.080178     5Ag     0.154350     1B2g    0.154350
       1B1g    0.154350     1B3g    0.154350     6Ag     0.154350
       4B2u    0.282474     4B1u    0.282474     4B3u    0.282474
       7Ag     0.343957     5B3u    0.347760     5B1u    0.347760
       5B2u    0.347760     1Au     0.347760     6B3u    0.347760
       6B1u    0.347760     6B2u    0.347760     2B3g    0.444171
       8Ag     0.444171     2B1g    0.444171     2B2g    0.444171
       9Ag     0.444171    10Ag     0.713666     3B2g    0.713666
       3B1g    0.713666     3B3g    0.713666    11Ag     0.713666
       4B2g    0.713666     4B1g    0.713666     4B3g    0.713666
      12Ag     0.713666     7B2u    0.829516     7B1u    0.829516
       7B3u    0.829516     8B1u    0.952728     8B2u    0.952728
       2Au     0.952728     8B3u    0.952728     9B2u    0.952728
       9B1u    0.952728     9B3u    0.952728     5B3g    0.969058
      13Ag     0.969058     5B1g    0.969058     5B2g    0.969058
      14Ag     0.969058    15Ag     1.167078    10B3u    1.636086
      10B1u    1.636086    10B2u    1.636086     3Au     1.636086
      11B3u    1.636086    11B1u    1.636086    11B2u    1.636086
       4Au     1.636086    12B3u    1.636086    12B2u    1.636086
      12B1u    1.636086    16Ag     1.772384     6B3g    1.772384
       6B2g    1.772384     6B1g    1.772384     7B3g    1.772384
      17Ag     1.772384     7B1g    1.772384     7B2g    1.772384
      18Ag     1.772384    13B1u    2.074486    13B2u    2.074486
       5Au     2.074486    13B3u    2.074486    14B2u    2.074486
      14B1u    2.074486    14B3u    2.074486     8B3g    2.108635
      19Ag     2.108635     8B1g    2.108635     8B2g    2.108635
      20Ag     2.108635    15B2u    2.251472    15B1u    2.251472
      15B3u    2.251472    21Ag     3.426116     9B3g    3.426116
       9B2g    3.426116     9B1g    3.426116    22Ag     3.426116
      10B3g    3.426116    10B2g    3.426116    10B1g    3.426116
      11B3g    3.426116    23Ag     3.426116    11B1g    3.426116
      11B2g    3.426116    24Ag     3.426116    25Ag     3.464692
      26Ag     3.651985    12B3g    3.651985    12B2g    3.651985
      12B1g    3.651985    27Ag     3.651985    13B3g    3.651985
      13B1g    3.651985    13B2g    3.651985    28Ag     3.651985
      16B2u    3.742068    16B1u    3.742068    16B3u    3.742068
       6Au     3.742068    17B1u    3.742068    17B2u    3.742068
       7Au     3.742068    17B3u    3.742068    18B2u    3.742068
      18B1u    3.742068    18B3u    3.742068    19B1u    4.329574
      19B2u    4.329574    19B3u    4.329574     8Au     4.329574
      20B2u    4.329574    20B1u    4.329574    20B3u    4.329574
      29Ag     4.467831    14B3g    4.467831    14B1g    4.467831
      14B2g    4.467831    30Ag     4.467831    21B2u    6.231596
      21B1u    6.231596    21B3u    6.231596    31Ag     7.138664
      15B3g    7.138664    15B1g    7.138664    15B2g    7.138664
      32Ag     7.138664    16B3g    7.138664    16B1g    7.138664
      16B2g    7.138664    33Ag     7.138664    34Ag     7.533951
      17B3g    7.533951    17B1g    7.533951    17B2g    7.533951
      35Ag     7.533951    18B3g    7.533951    18B1g    7.533951
      18B2g    7.533951    36Ag     7.533951    19B3g    7.533951
      19B1g    7.533951    19B2g    7.533951    37Ag     7.533951
      22B1u    7.917288    22B2u    7.917288    22B3u    7.917288
       9Au     7.917288    23B2u    7.917288    23B1u    7.917288
      23B3u    7.917288    10Au     7.917288    24B2u    7.917288
      24B1u    7.917288    24B3u    7.917288    25B2u    9.058702
      25B1u    9.058702    25B3u    9.058702    11Au     9.058702
      26B2u    9.058702    26B1u    9.058702    26B3u    9.058702
      38Ag     9.271971    20B3g    9.271971    20B1g    9.271971
      20B2g    9.271971    39Ag     9.271971    40Ag    10.507094
      27B1u   25.784073    27B2u   25.784073    27B3u   25.784073
      21B3g   25.897449    41Ag    25.897449    21B1g   25.897449
      21B2g   25.897449    42Ag    25.897449    43Ag   209.133395

    Final Occupation by Irrep:
             Ag   B1g   B2g   B3g    Au   B1u   B2u   B3u
    DOCC [     3,    0,    0,    0,    0,    1,    1,    1 ]
    SOCC [     0,    0,    0,    0,    0,    1,    1,    1 ]

  @UHF Final Energy:  -340.71925058836467

   => Energetics <=

    Nuclear Repulsion Energy =              0.0000000000000000
    One-Electron Energy =                -471.5054854047418189
    Two-Electron Energy =                 130.7862348163772026
    Total Energy =                       -340.7192505883646163

  UHF NO Occupations:
  HONO-2 :    2B3u 1.0000000
  HONO-1 :    2B2u 1.0000000
  HONO-0 :    2B1u 1.0000000
  LUNO+0 :    4 Ag 0.0003246
  LUNO+1 :    3B3u 0.0000059
  LUNO+2 :    3B1u 0.0000059
  LUNO+3 :    3B2u 0.0000059

Computation Completed

Properties will be evaluated at   0.000000,   0.000000,   0.000000 [a0]

Properties computed using the SCF density matrix

  Nuclear Dipole Moment: [e a0]
     X:     0.0000      Y:     0.0000      Z:     0.0000

  Electronic Dipole Moment: [e a0]
     X:     0.0000      Y:     0.0000      Z:     0.0000

  Dipole Moment: [e a0]
     X:     0.0000      Y:     0.0000      Z:     0.0000     Total:     0.0000

  Dipole Moment: [D]
     X:     0.0000      Y:     0.0000      Z:     0.0000     Total:     0.0000

*** tstop() called on n411-011.vsc4.prov at Thu Jan 21 14:04:39 2021
Module time:
	user time   =     130.20 seconds =       2.17 minutes
	system time =       5.35 seconds =       0.09 minutes
	total time  =        123 seconds =       2.05 minutes
Total time:
	user time   =     130.20 seconds =       2.17 minutes
	system time =       5.35 seconds =       0.09 minutes
	total time  =        123 seconds =       2.05 minutes

*** tstart() called on n411-011.vsc4.prov
*** at Thu Jan 21 14:04:40 2021

	Wfn Parameters:
	--------------------
	Wavefunction         = CCSD_T
	Number of irreps     = 8
	Number of MOs        = 198
	Number of active MOs = 193
	AO-Basis             = NONE
	Semicanonical        = false
	Reference            = UHF
	Print Level          = 1

	IRREP	# MOs	# FZDC	# DOCC	# SOCC	# VIRT	# FZVR
	-----	-----	------	------	------	------	------
	 Ag	   43	    2	    1	    0	    40	    0
	 B1g	   21	    0	    0	    0	    21	    0
	 B2g	   21	    0	    0	    0	    21	    0
	 B3g	   21	    0	    0	    0	    21	    0
	 Au	   11	    0	    0	    0	    11	    0
	 B1u	   27	    1	    0	    1	    25	    0
	 B2u	   27	    1	    0	    1	    25	    0
	 B3u	   27	    1	    0	    1	    25	    0
	Transforming integrals...
	IWL integrals will be deleted.
	(OO|OO)...
	Presorting SO-basis two-electron integrals.
	Sorting File: SO Ints (nn|nn) nbuckets = 1
	Constructing frozen core operators
	Starting AA/AB first half-transformation.
	Sorting AA/AB half-transformed integrals.
	Starting BB first half-transformation.
	Sorting BB half-transformed integrals.
	First half integral transformation complete.
	Starting AA second half-transformation.
	Starting AB second half-transformation.
	Starting BB second half-transformation.
	Two-electron integral transformation complete.
	(OO|OV)...
	Starting AA second half-transformation.
	Starting AB second half-transformation.
	Starting BB second half-transformation.
	Two-electron integral transformation complete.
	(OO|VV)...
	Starting AA second half-transformation.
	Starting AB second half-transformation.
	Starting BB second half-transformation.
	Two-electron integral transformation complete.
	(OV|OO)...
	Starting AA/AB first half-transformation.
	Sorting AA/AB half-transformed integrals.
	Starting BB first half-transformation.
	Sorting BB half-transformed integrals.
	First half integral transformation complete.
	Starting AA second half-transformation.
	Starting AB second half-transformation.
	Starting BB second half-transformation.
	Two-electron integral transformation complete.
	(OV|OV)...
	Starting AA second half-transformation.
	Starting AB second half-transformation.
	Starting BB second half-transformation.
	Two-electron integral transformation complete.
	(OV|VV)...
	Starting AA second half-transformation.
	Starting AB second half-transformation.
	Starting BB second half-transformation.
	Two-electron integral transformation complete.
	(VV|OO)...
	Starting AA/AB first half-transformation.
	Sorting AA/AB half-transformed integrals.
	Starting BB first half-transformation.
	Sorting BB half-transformed integrals.
	First half integral transformation complete.
	Starting AA second half-transformation.
	Starting AB second half-transformation.
	Starting BB second half-transformation.
	Two-electron integral transformation complete.
	(VV|OV)...
	Starting AA second half-transformation.
	Starting AB second half-transformation.
	Starting BB second half-transformation.
	Two-electron integral transformation complete.
	(VV|VV)...
	Starting AA second half-transformation.
	Starting AB second half-transformation.
	Starting BB second half-transformation.
	Two-electron integral transformation complete.
	Frozen core energy     =   -334.36251757762733

	Size of irrep 0 of <AB|CD> integrals:      5.593 (MW) /     44.746 (MB)
	Size of irrep 1 of <AB|CD> integrals:      4.757 (MW) /     38.054 (MB)
	Size of irrep 2 of <AB|CD> integrals:      4.757 (MW) /     38.054 (MB)
	Size of irrep 3 of <AB|CD> integrals:      4.757 (MW) /     38.054 (MB)
	Size of irrep 4 of <AB|CD> integrals:      4.060 (MW) /     32.482 (MB)
	Size of irrep 5 of <AB|CD> integrals:      5.203 (MW) /     41.624 (MB)
	Size of irrep 6 of <AB|CD> integrals:      5.203 (MW) /     41.624 (MB)
	Size of irrep 7 of <AB|CD> integrals:      5.203 (MW) /     41.624 (MB)
	Total:                                    39.533 (MW) /    316.261 (MB)

	Size of irrep 0 of <ab|cd> integrals:      5.954 (MW) /     47.629 (MB)
	Size of irrep 1 of <ab|cd> integrals:      5.031 (MW) /     40.248 (MB)
	Size of irrep 2 of <ab|cd> integrals:      5.031 (MW) /     40.248 (MB)
	Size of irrep 3 of <ab|cd> integrals:      5.031 (MW) /     40.248 (MB)
	Size of irrep 4 of <ab|cd> integrals:      4.318 (MW) /     34.545 (MB)
	Size of irrep 5 of <ab|cd> integrals:      5.584 (MW) /     44.670 (MB)
	Size of irrep 6 of <ab|cd> integrals:      5.584 (MW) /     44.670 (MB)
	Size of irrep 7 of <ab|cd> integrals:      5.584 (MW) /     44.670 (MB)
	Total:                                    42.116 (MW) /    336.929 (MB)

	Size of irrep 0 of <Ab|Cd> integrals:     24.940 (MW) /    199.520 (MB)
	Size of irrep 1 of <Ab|Cd> integrals:     19.563 (MW) /    156.503 (MB)
	Size of irrep 2 of <Ab|Cd> integrals:     19.563 (MW) /    156.503 (MB)
	Size of irrep 3 of <Ab|Cd> integrals:     19.563 (MW) /    156.503 (MB)
	Size of irrep 4 of <Ab|Cd> integrals:     16.753 (MW) /    134.021 (MB)
	Size of irrep 5 of <Ab|Cd> integrals:     21.567 (MW) /    172.534 (MB)
	Size of irrep 6 of <Ab|Cd> integrals:     21.567 (MW) /    172.534 (MB)
	Size of irrep 7 of <Ab|Cd> integrals:     21.567 (MW) /    172.534 (MB)
	Total:                                   165.082 (MW) /   1320.653 (MB)

	Size of irrep 0 of <IA|BC> integrals:      0.566 (MW) /      4.525 (MB)
	Size of irrep 1 of <IA|BC> integrals:      0.358 (MW) /      2.861 (MB)
	Size of irrep 2 of <IA|BC> integrals:      0.358 (MW) /      2.861 (MB)
	Size of irrep 3 of <IA|BC> integrals:      0.358 (MW) /      2.861 (MB)
	Size of irrep 4 of <IA|BC> integrals:      0.298 (MW) /      2.386 (MB)
	Size of irrep 5 of <IA|BC> integrals:      0.488 (MW) /      3.905 (MB)
	Size of irrep 6 of <IA|BC> integrals:      0.488 (MW) /      3.905 (MB)
	Size of irrep 7 of <IA|BC> integrals:      0.488 (MW) /      3.905 (MB)
	Total:                                     3.401 (MW) /     27.211 (MB)

	Size of irrep 0 of <ia|bc> integrals:      0.203 (MW) /      1.623 (MB)
	Size of irrep 1 of <ia|bc> integrals:      0.094 (MW) /      0.754 (MB)
	Size of irrep 2 of <ia|bc> integrals:      0.094 (MW) /      0.754 (MB)
	Size of irrep 3 of <ia|bc> integrals:      0.094 (MW) /      0.754 (MB)
	Size of irrep 4 of <ia|bc> integrals:      0.046 (MW) /      0.366 (MB)
	Size of irrep 5 of <ia|bc> integrals:      0.123 (MW) /      0.983 (MB)
	Size of irrep 6 of <ia|bc> integrals:      0.123 (MW) /      0.983 (MB)
	Size of irrep 7 of <ia|bc> integrals:      0.123 (MW) /      0.983 (MB)
	Total:                                     0.900 (MW) /      7.199 (MB)

	Size of irrep 0 of <Ia|Bc> integrals:      0.589 (MW) /      4.714 (MB)
	Size of irrep 1 of <Ia|Bc> integrals:      0.372 (MW) /      2.972 (MB)
	Size of irrep 2 of <Ia|Bc> integrals:      0.372 (MW) /      2.972 (MB)
	Size of irrep 3 of <Ia|Bc> integrals:      0.372 (MW) /      2.972 (MB)
	Size of irrep 4 of <Ia|Bc> integrals:      0.303 (MW) /      2.423 (MB)
	Size of irrep 5 of <Ia|Bc> integrals:      0.502 (MW) /      4.012 (MB)
	Size of irrep 6 of <Ia|Bc> integrals:      0.502 (MW) /      4.012 (MB)
	Size of irrep 7 of <Ia|Bc> integrals:      0.502 (MW) /      4.012 (MB)
	Total:                                     3.511 (MW) /     28.091 (MB)

	Size of irrep 0 of <iA|bC> integrals:      0.200 (MW) /      1.598 (MB)
	Size of irrep 1 of <iA|bC> integrals:      0.093 (MW) /      0.743 (MB)
	Size of irrep 2 of <iA|bC> integrals:      0.093 (MW) /      0.743 (MB)
	Size of irrep 3 of <iA|bC> integrals:      0.093 (MW) /      0.743 (MB)
	Size of irrep 4 of <iA|bC> integrals:      0.045 (MW) /      0.360 (MB)
	Size of irrep 5 of <iA|bC> integrals:      0.116 (MW) /      0.929 (MB)
	Size of irrep 6 of <iA|bC> integrals:      0.116 (MW) /      0.929 (MB)
	Size of irrep 7 of <iA|bC> integrals:      0.116 (MW) /      0.929 (MB)
	Total:                                     0.872 (MW) /      6.974 (MB)

	Size of irrep 0 of tIjAb amplitudes:       0.005 (MW) /      0.040 (MB)
	Size of irrep 1 of tIjAb amplitudes:       0.000 (MW) /      0.000 (MB)
	Size of irrep 2 of tIjAb amplitudes:       0.000 (MW) /      0.000 (MB)
	Size of irrep 3 of tIjAb amplitudes:       0.000 (MW) /      0.000 (MB)
	Size of irrep 4 of tIjAb amplitudes:       0.000 (MW) /      0.000 (MB)
	Size of irrep 5 of tIjAb amplitudes:       0.005 (MW) /      0.037 (MB)
	Size of irrep 6 of tIjAb amplitudes:       0.005 (MW) /      0.037 (MB)
	Size of irrep 7 of tIjAb amplitudes:       0.005 (MW) /      0.037 (MB)
	Total:                                     0.019 (MW) /      0.151 (MB)

	Nuclear Rep. energy          =      0.00000000000000
	SCF energy                   =   -340.71925058836467
	One-electron energy          =    -10.14475729346201
	Two-electron (AA) energy     =      2.05118426365594
	Two-electron (BB) energy     =      0.00000000000000
	Two-electron (AB) energy     =      1.73684001906895
	Two-electron energy          =      3.78802428272489
	Reference energy             =   -340.71925058836445

*** tstop() called on n411-011.vsc4.prov at Thu Jan 21 14:05:49 2021
Module time:
	user time   =      22.16 seconds =       0.37 minutes
	system time =      10.31 seconds =       0.17 minutes
	total time  =         69 seconds =       1.15 minutes
Total time:
	user time   =     152.36 seconds =       2.54 minutes
	system time =      15.66 seconds =       0.26 minutes
	total time  =        193 seconds =       3.22 minutes
            **************************
            *                        *
            *        CCENERGY        *
            *                        *
            **************************

    Nuclear Rep. energy (wfn)     =    0.000000000000000
    SCF energy          (wfn)     = -340.719250588364673
    Reference energy    (file100) = -340.719250588364446

      * MP2 total energy                      = -340.812464055329258
      * CCSD total energy                     = -340.826289527100641
      * CCSD(T) total energy                     = -340.831180183200217
*** Psi4 exiting successfully. Buy a developer a beer!
