                               Psi4 1.4a3.dev88

  ==> Input File <==

--------------------------------------------------------------------------
# Any line starting with the # character is a comment line
memory 250000 mb
molecule molecule{
1 2
Cl         0.0000000000        0.0000000000        0.5316695235
F          0.0000000000        0.0000000000       -0.9921507411
}

set {
  reference uhf
  basis aug-cc-pV(d+d)Z
  scf_type OUT_OF_CORE
  freeze_core true
  DOCC [     7,    0,    3,    2 ]
  SOCC [     0,    0,    0,    1 ]
}

energy('ccsd(t)')
--------------------------------------------------------------------------

    Molecular point group: c2v

    Geometry (in Angstrom), charge = 1, multiplicity = 2:

       Center              X                  Y                   Z               Mass
    ------------   -----------------  -----------------  -----------------  -----------------
         CL           0.000000000000     0.000000000000     0.536439203388    34.968852682000
         F            0.000000000000     0.000000000000    -0.987381061212    18.998403162730

  Charge       = 1
  Multiplicity = 2
  Basis Set: AUG-CC-PV(D+D)Z
    Blend: AUG-CC-PV(D+D)Z

    Orbital Energies [Eh]
    ---------------------

    Alpha Occupied:

       1A1  -105.393194     2A1   -26.747796     3A1   -11.102854
       1B2    -8.586748     4A1    -8.566259     1B1    -8.559817
       5A1    -2.056769     6A1    -1.527114     2B2    -1.133971
       2B1    -1.105694     7A1    -1.093268     3B2    -0.929571
       3B1    -0.865048

    Alpha Virtual:

       8A1    -0.253453     9A1    -0.099131     4B2    -0.069088
       4B1    -0.060009    10A1    -0.040336    11A1     0.053088
       5B2     0.065739     5B1     0.074910     1A2     0.086350
      12A1     0.087864     6B2     0.181298     6B1     0.210166
      13A1     0.232889    14A1     0.376534     7B2     0.512178
       7B1     0.550024    15A1     0.580829    16A1     0.837858
       2A2     0.845524     8B2     0.851107    17A1     0.866312
       8B1     0.882813    18A1     1.000964     3A2     1.052627
      19A1     1.052768     9B2     1.256619     9B1     1.267546
      20A1     1.418023    10B2     1.440240    10B1     1.458791
      21A1     1.856604    22A1     2.853235    23A1     4.476496
       4A2     4.476770    24A1     4.585751    11B2     4.587572
      11B1     4.599831    25A1     5.457160     5A2     5.458533
      12B2     5.488565    12B1     5.518530    26A1     5.671697

    Beta Occupied:

       1A1  -105.381047     2A1   -26.739182     3A1   -11.090270
       4A1    -8.560471     1B1    -8.553227     1B2    -8.534979
       5A1    -2.032244     6A1    -1.424821     2B1    -1.095827
       7A1    -1.072179     2B2    -1.030878     3B1    -0.842869

    Beta Virtual:

       3B2    -0.390713     8A1    -0.230721     9A1    -0.094954
       4B1    -0.058996     4B2    -0.056455    10A1    -0.037305
      11A1     0.056853     5B1     0.075614     5B2     0.078224
       1A2     0.136531    12A1     0.137817     6B1     0.212882
       6B2     0.231283    13A1     0.233847    14A1     0.391830
       7B1     0.557341     7B2     0.585605    15A1     0.588398
      16A1     0.868430     8B1     0.886571     8B2     0.887771
       2A2     0.896959    17A1     0.897807    18A1     1.023720
       3A2     1.054690    19A1     1.054899     9B1     1.268924
       9B2     1.273207    20A1     1.421921    10B1     1.461746
      10B2     1.470918    21A1     1.861039    22A1     2.862539
      23A1     4.494257     4A2     4.494259    24A1     4.590749
      11B1     4.601533    11B2     4.603208    25A1     5.469715
       5A2     5.470343    12B2     5.500097    12B1     5.520227
      26A1     5.676605

    Final Occupation by Irrep:
             A1    A2    B1    B2
    DOCC [     7,    0,    3,    2 ]
    SOCC [     0,    0,    0,    1 ]

  @UHF Final Energy:  -558.42550073890277

   => Energetics <=

    Nuclear Repulsion Energy =             53.1323247980055768
    One-Electron Energy =                -869.0895539889677366
    Two-Electron Energy =                 257.5317284520593830
    Total Energy =                       -558.4255007389027696

  UHF NO Occupations:
  HONO-2 :    2 B2 1.9987914
  HONO-1 :    7 A1 1.9952839
  HONO-0 :    3 B2 1.0000000
  LUNO+0 :    8 A1 0.0047161
  LUNO+1 :    4 B2 0.0012086
  LUNO+2 :    9 A1 0.0001233
  LUNO+3 :    4 B1 0.0000811

Computation Completed

Properties will be evaluated at   0.000000,   0.000000,   0.000000 [a0]

Properties computed using the SCF density matrix

  Nuclear Dipole Moment: [e a0]
     X:     0.0000      Y:     0.0000      Z:     0.4404

  Electronic Dipole Moment: [e a0]
     X:     0.0000      Y:     0.0000      Z:     0.4476

  Dipole Moment: [e a0]
     X:     0.0000      Y:     0.0000      Z:     0.8880     Total:     0.8880

  Dipole Moment: [D]
     X:     0.0000      Y:     0.0000      Z:     2.2571     Total:     2.2571

*** tstop() called on l48 at Fri Jan 29 14:50:26 2021
Module time:
	user time   =       0.97 seconds =       0.02 minutes
	system time =       0.07 seconds =       0.00 minutes
	total time  =          1 seconds =       0.02 minutes
Total time:
	user time   =       0.97 seconds =       0.02 minutes
	system time =       0.07 seconds =       0.00 minutes
	total time  =          1 seconds =       0.02 minutes

*** tstart() called on l48
*** at Fri Jan 29 14:50:26 2021

	Wfn Parameters:
	--------------------
	Wavefunction         = CCSD_T
	Number of irreps     = 4
	Number of MOs        = 55
	Number of active MOs = 49
	AO-Basis             = NONE
	Semicanonical        = false
	Reference            = UHF
	Print Level          = 1

	IRREP	# MOs	# FZDC	# DOCC	# SOCC	# VIRT	# FZVR
	-----	-----	------	------	------	------	------
	 A1	   26	    4	    3	    0	    19	    0
	 A2	   5	    0	    0	    0	    5	    0
	 B1	   12	    1	    2	    0	    9	    0
	 B2	   12	    1	    1	    1	    9	    0
	Transforming integrals...
	IWL integrals will be deleted.
	(OO|OO)...
	Presorting SO-basis two-electron integrals.
	Sorting File: SO Ints (nn|nn) nbuckets = 1
	Constructing frozen core operators
	Starting AA/AB first half-transformation.
	Sorting AA/AB half-transformed integrals.
	Starting BB first half-transformation.
	Sorting BB half-transformed integrals.
	First half integral transformation complete.
	Starting AA second half-transformation.
	Starting AB second half-transformation.
	Starting BB second half-transformation.
	Two-electron integral transformation complete.
	(OO|OV)...
	Starting AA second half-transformation.
	Starting AB second half-transformation.
	Starting BB second half-transformation.
	Two-electron integral transformation complete.
	(OO|VV)...
	Starting AA second half-transformation.
	Starting AB second half-transformation.
	Starting BB second half-transformation.
	Two-electron integral transformation complete.
	(OV|OO)...
	Starting AA/AB first half-transformation.
	Sorting AA/AB half-transformed integrals.
	Starting BB first half-transformation.
	Sorting BB half-transformed integrals.
	First half integral transformation complete.
	Starting AA second half-transformation.
	Starting AB second half-transformation.
	Starting BB second half-transformation.
	Two-electron integral transformation complete.
	(OV|OV)...
	Starting AA second half-transformation.
	Starting AB second half-transformation.
	Starting BB second half-transformation.
	Two-electron integral transformation complete.
	(OV|VV)...
	Starting AA second half-transformation.
	Starting AB second half-transformation.
	Starting BB second half-transformation.
	Two-electron integral transformation complete.
	(VV|OO)...
	Starting AA/AB first half-transformation.
	Sorting AA/AB half-transformed integrals.
	Starting BB first half-transformation.
	Sorting BB half-transformed integrals.
	First half integral transformation complete.
	Starting AA second half-transformation.
	Starting AB second half-transformation.
	Starting BB second half-transformation.
	Two-electron integral transformation complete.
	(VV|OV)...
	Starting AA second half-transformation.
	Starting AB second half-transformation.
	Starting BB second half-transformation.
	Two-electron integral transformation complete.
	(VV|VV)...
	Starting AA second half-transformation.
	Starting AB second half-transformation.
	Starting BB second half-transformation.
	Two-electron integral transformation complete.
	Frozen core energy     =   -556.33491231923199

	Size of irrep 0 of <AB|CD> integrals:      0.064 (MW) /      0.512 (MB)
	Size of irrep 1 of <AB|CD> integrals:      0.031 (MW) /      0.248 (MB)
	Size of irrep 2 of <AB|CD> integrals:      0.047 (MW) /      0.373 (MB)
	Size of irrep 3 of <AB|CD> integrals:      0.047 (MW) /      0.373 (MB)
	Total:                                     0.188 (MW) /      1.506 (MB)

	Size of irrep 0 of <ab|cd> integrals:      0.069 (MW) /      0.549 (MB)
	Size of irrep 1 of <ab|cd> integrals:      0.034 (MW) /      0.274 (MB)
	Size of irrep 2 of <ab|cd> integrals:      0.049 (MW) /      0.391 (MB)
	Size of irrep 3 of <ab|cd> integrals:      0.055 (MW) /      0.442 (MB)
	Total:                                     0.207 (MW) /      1.655 (MB)

	Size of irrep 0 of <Ab|Cd> integrals:      0.310 (MW) /      2.482 (MB)
	Size of irrep 1 of <Ab|Cd> integrals:      0.130 (MW) /      1.043 (MB)
	Size of irrep 2 of <Ab|Cd> integrals:      0.191 (MW) /      1.528 (MB)
	Size of irrep 3 of <Ab|Cd> integrals:      0.203 (MW) /      1.627 (MB)
	Total:                                     0.835 (MW) /      6.680 (MB)

	Size of irrep 0 of <IA|BC> integrals:      0.051 (MW) /      0.408 (MB)
	Size of irrep 1 of <IA|BC> integrals:      0.018 (MW) /      0.144 (MB)
	Size of irrep 2 of <IA|BC> integrals:      0.032 (MW) /      0.259 (MB)
	Size of irrep 3 of <IA|BC> integrals:      0.032 (MW) /      0.259 (MB)
	Total:                                     0.134 (MW) /      1.070 (MB)

	Size of irrep 0 of <ia|bc> integrals:      0.048 (MW) /      0.386 (MB)
	Size of irrep 1 of <ia|bc> integrals:      0.016 (MW) /      0.130 (MB)
	Size of irrep 2 of <ia|bc> integrals:      0.031 (MW) /      0.248 (MB)
	Size of irrep 3 of <ia|bc> integrals:      0.028 (MW) /      0.222 (MB)
	Total:                                     0.123 (MW) /      0.985 (MB)

	Size of irrep 0 of <Ia|Bc> integrals:      0.053 (MW) /      0.423 (MB)
	Size of irrep 1 of <Ia|Bc> integrals:      0.019 (MW) /      0.153 (MB)
	Size of irrep 2 of <Ia|Bc> integrals:      0.033 (MW) /      0.262 (MB)
	Size of irrep 3 of <Ia|Bc> integrals:      0.035 (MW) /      0.281 (MB)
	Total:                                     0.140 (MW) /      1.120 (MB)

	Size of irrep 0 of <iA|bC> integrals:      0.047 (MW) /      0.374 (MB)
	Size of irrep 1 of <iA|bC> integrals:      0.015 (MW) /      0.121 (MB)
	Size of irrep 2 of <iA|bC> integrals:      0.031 (MW) /      0.245 (MB)
	Size of irrep 3 of <iA|bC> integrals:      0.025 (MW) /      0.202 (MB)
	Total:                                     0.118 (MW) /      0.942 (MB)

	Size of irrep 0 of tIjAb amplitudes:       0.008 (MW) /      0.067 (MB)
	Size of irrep 1 of tIjAb amplitudes:       0.002 (MW) /      0.017 (MB)
	Size of irrep 2 of tIjAb amplitudes:       0.005 (MW) /      0.042 (MB)
	Size of irrep 3 of tIjAb amplitudes:       0.004 (MW) /      0.032 (MB)
	Total:                                     0.020 (MW) /      0.159 (MB)

	Nuclear Rep. energy          =     53.13232479800558
	SCF energy                   =   -558.42550073890277
	One-electron energy          =    -94.23557495057828
	Two-electron (AA) energy     =      9.36897836994954
	Two-electron (BB) energy     =      6.97691993977028
	Two-electron (AB) energy     =     22.66676342318233
	Two-electron energy          =     39.01266173290215
	Reference energy             =   -558.42550073890254

*** tstop() called on l48 at Fri Jan 29 14:50:26 2021
Module time:
	user time   =       0.30 seconds =       0.01 minutes
	system time =       0.24 seconds =       0.00 minutes
	total time  =          0 seconds =       0.00 minutes
Total time:
	user time   =       1.27 seconds =       0.02 minutes
	system time =       0.31 seconds =       0.01 minutes
	total time  =          1 seconds =       0.02 minutes
            **************************
            *                        *
            *        CCENERGY        *
            *                        *
            **************************

    Nuclear Rep. energy (wfn)     =   53.132324798005577
    SCF energy          (wfn)     = -558.425500738902770
    Reference energy    (file100) = -558.425500738902542

    Input parameters:
    -----------------
    Wave function   =     CCSD_T
    Reference wfn   =     UHF
    Brueckner       =     No
    Memory (Mbytes) =     250000.0
    Maxiter         =     50
    R_Convergence   =     1.0e-07
    E_Convergence   =     1.0e-06
    Restart         =     Yes
    DIIS            =     Yes
    AO Basis        =     NONE
    ABCD            =     NEW
    Cache Level     =     2
    Cache Type      =     LRU
    Print Level     =     1
    Num. of threads =     1
    # Amps to Print =     10
    Print MP2 Amps? =     No
    Analyze T2 Amps =     No
    Print Pair Ener =     No
    Local CC        =     No
    SCS-MP2         =     False
    SCSN-MP2        =     False
    SCS-CCSD        =     False

MP2 correlation energy -0.3338439925186230
                Solving CC Amplitude Equations
                ------------------------------
  Iter             Energy              RMS        T1Diag      D1Diag    New D1Diag    D2Diag
  ----     ---------------------    ---------   ----------  ----------  ----------   --------
     0        -0.333843992518623    0.000e+00    0.000000    0.000000    0.000000    0.000000
     1        -0.338217709335556    9.746e-02    0.022913    0.000000    0.000000    0.000000
     2        -0.349755802617646    3.306e-02    0.023442    0.000000    0.000000    0.000000
     3        -0.353887434425680    2.491e-02    0.031289    0.000000    0.000000    0.000000
     4        -0.353882557865916    1.144e-02    0.036538    0.000000    0.000000    0.000000
     5        -0.354061931941800    5.869e-03    0.040274    0.000000    0.000000    0.000000
     6        -0.354103986237873    1.504e-03    0.040971    0.000000    0.000000    0.000000
     7        -0.354101419355281    4.842e-04    0.041155    0.000000    0.000000    0.000000
     8        -0.354104094622669    1.775e-04    0.041148    0.000000    0.000000    0.000000
     9        -0.354103957476475    6.208e-05    0.041162    0.000000    0.000000    0.000000
    10        -0.354103299167757    2.138e-05    0.041160    0.000000    0.000000    0.000000
    11        -0.354103798347379    7.603e-06    0.041161    0.000000    0.000000    0.000000
    12        -0.354103802654022    3.174e-06    0.041162    0.000000    0.000000    0.000000
    13        -0.354103922082973    1.284e-06    0.041161    0.000000    0.000000    0.000000
    14        -0.354103932654994    4.417e-07    0.041161    0.000000    0.000000    0.000000
    15        -0.354103931061227    1.843e-07    0.041162    0.000000    0.000000    0.000000
    16        -0.354103928030824    7.598e-08    0.041162    0.000000    0.000000    0.000000

    Iterations converged.

    Largest TIA Amplitudes:
              5  34         0.0166507323
              2   0        -0.0153303058
              3  25         0.0151025584
              2   6         0.0132302125
              5  35         0.0117849046
              2  10        -0.0107289966
              3  26         0.0104359829
              1   6         0.0066750168
              2  13        -0.0065309484
              2  14         0.0064229809

    Largest Tia Amplitudes:
              5  33         0.1344058987
              1   0         0.0164476995
              3  25         0.0155274240
              1   4        -0.0141847434
              5  34        -0.0137483302
              3  26         0.0121413573
              5  37        -0.0115774403
              2   4        -0.0110777394
              2   6         0.0098395045
              5  35        -0.0089885882

    Largest TIJAB Amplitudes:
      6   4  19   4        -0.0260691710
      4   2  26   0        -0.0217693139
      6   2  35   0        -0.0209331775
      5   4  19   4        -0.0151751996
      6   2  34   0        -0.0147164857
      6   4  20   4        -0.0142122719
      6   4  35  26        -0.0127289714
      4   2  25   0        -0.0125220863
      6   4  19   8        -0.0123203926
      6   3  19   4        -0.0115947371

    Largest Tijab Amplitudes:
      5   2  33   0         0.0462374543
      4   2  26   0        -0.0214341590
      5   2  33   2         0.0191957363
      5   2  33   6         0.0181820607
      5   4  33  26         0.0145123532
      4   1  33  19        -0.0137822972
      5   4  33  25         0.0121505177
      5   3  21  11        -0.0119385922
      4   2  25   0        -0.0119385053
      5   4  19   4         0.0118723564

    Largest TIjAb Amplitudes:
      2   2   0   0        -0.0734407527
      2   5   0  33         0.0538676267
      4   4   0   0        -0.0343892131
      2   2   0   2        -0.0305558642
      4   1  19  33         0.0305034716
      4   4  19  19        -0.0300119589
      4   4   4   4        -0.0295802419
      6   1   4  33        -0.0281037935
      4   4  26  26        -0.0270764760
      2   2   2   0        -0.0269077287

    SCF energy       (wfn)                    = -558.425500738902770
    Reference energy (file100)                = -558.425500738902542

    Opposite-spin MP2 correlation energy      =   -0.244279276729564
    Same-spin MP2 correlation energy          =   -0.089564715789059
    Singles MP2 correlation energy            =   -0.000000000000000
    MP2 correlation energy                    =   -0.333843992518623
      * MP2 total energy                      = -558.759344731421152

    Opposite-spin CCSD correlation energy     =   -0.271600297871725
    Same-spin CCSD correlation energy         =   -0.082503630159099
    Singles CCSD correlation energy           =   -0.000000000000000
    CCSD correlation energy                   =   -0.354103928030824
      * CCSD total energy                     = -558.779604666933324

            **************************
            *                        *

      * CCSD(T) total energy                     = -558.790811665390606
*** Psi4 exiting successfully. Buy a developer a beer!
