                               Psi4 1.4a3.dev88

  ==> Input File <==

--------------------------------------------------------------------------
# Any line starting with the # character is a comment line
memory 250000 mb
molecule molecule{
1 2
Cl         0.0000000000        0.0000000000        0.5316695235
F          0.0000000000        0.0000000000       -0.9921507411
}

set {
  reference uhf
  basis aug-cc-pV(5+d)Z
  scf_type OUT_OF_CORE
  freeze_core true
}

energy('ccsd(t)')
--------------------------------------------------------------------------

    Molecular point group: c2v

    Geometry (in Angstrom), charge = 1, multiplicity = 2:

       Center              X                  Y                   Z               Mass
    ------------   -----------------  -----------------  -----------------  -----------------
         CL           0.000000000000     0.000000000000     0.536439203388    34.968852682000
         F            0.000000000000     0.000000000000    -0.987381061212    18.998403162730

  Charge       = 1
  Multiplicity = 2
  Basis Set: AUG-CC-PV(5+D)Z
    Blend: AUG-CC-PV(5+D)Z

    Orbital Energies [Eh]
    ---------------------

    Alpha Occupied:

       1A1  -105.388545     2A1   -26.729389     3A1   -11.098047
       1B1    -8.582981     4A1    -8.560178     1B2    -8.557254
       5A1    -2.046278     6A1    -1.522055     2B1    -1.131632
       2B2    -1.103633     7A1    -1.090490     3B1    -0.929660
       3B2    -0.862867

    Alpha Virtual:

       8A1    -0.250829     9A1    -0.119587     4B1    -0.083118
       4B2    -0.077265    10A1    -0.063459    11A1    -0.015831
       1A2    -0.013166    12A1    -0.008870     5B1    -0.004982
       5B2    -0.000225     6B1     0.068246     6B2     0.080380
      13A1     0.089323    14A1     0.112921     7B1     0.135192
       7B2     0.148403    15A1     0.160907    16A1     0.243158
       2A2     0.243331     8B1     0.262939     8B2     0.288773
      17A1     0.295188    18A1     0.319204     3A2     0.319311
       9B1     0.361575     9B2     0.361587    10B1     0.402569
      10B2     0.407217    19A1     0.420643    11B1     0.485071
      11B2     0.493339    20A1     0.503204    21A1     0.517005
       4A2     0.519241    22A1     0.522978    12B1     0.600103
      12B2     0.615801    23A1     0.672421    24A1     0.906045
      13B1     0.995157    13B2     0.995477    14B1     1.004754
      25A1     1.020759     5A2     1.023069    14B2     1.040811
      26A1     1.047197     6A2     1.047429    27A1     1.065887
       7A2     1.072709    28A1     1.074776    15B1     1.143391
      15B2     1.163426    16B1     1.171588    16B2     1.183576
      17B1     1.188633    17B2     1.195818    29A1     1.249289
       8A2     1.251501    30A1     1.293044    18B1     1.348520
      18B2     1.348541    31A1     1.371047     9A2     1.428123
      32A1     1.428424    19B1     1.430030    19B2     1.451583
      33A1     1.496720    20B1     1.580189    20B2     1.587772
      34A1     1.632363    21B1     1.730716    21B2     1.743195
      35A1     1.789799    10A2     1.832765    36A1     1.834380
      37A1     2.267179    22B1     2.395518    22B2     2.413401
      38A1     2.670154    39A1     2.737244    11A2     2.740610
      23B1     2.802325    23B2     2.802633    24B1     2.838002
      24B2     2.839103    40A1     2.846723    12A2     2.861002
      41A1     2.861017    25B1     2.879008    13A2     2.902416
      42A1     2.902818    25B2     2.913592    14A2     2.950604
      26B1     2.951738    43A1     2.952907    26B2     2.988099
      15A2     2.992411    44A1     2.992496    27B1     3.052708
      27B2     3.052712    28B1     3.098414    28B2     3.098624
      45A1     3.213355    46A1     3.318558    16A2     3.333737
      47A1     3.333739    29B1     3.347942    29B2     3.371562
      17A2     3.533959    48A1     3.534003    30B1     3.632508
      30B2     3.650065    31B1     3.667565    31B2     3.667685
      32B1     3.745029    49A1     3.767435    32B2     3.775912
      18A2     3.784100    50A1     3.786660    33B1     3.934859
      33B2     3.934881    51A1     3.963289    52A1     4.143979
      19A2     4.145240    34B1     4.158155    53A1     4.182565
      34B2     4.182828    54A1     4.633695    55A1     4.738436
      35B1     4.745811    35B2     4.765961    20A2     4.904992
      56A1     4.905549    36B1     5.362827    36B2     5.389944
      37B1     6.141577    37B2     6.141664    57A1     6.196228
      38B1     6.197017    38B2     6.215038    58A1     6.253269
      21A2     6.257141    59A1     6.266251    39B1     6.462736
      39B2     6.499564    60A1     6.758867    22A2     6.825648
      61A1     6.825892    23A2     6.877978    62A1     6.881997
      24A2     6.974480    63A1     6.974503    40B1     6.990356
      40B2     6.991764    41B1     7.015776    41B2     7.041696
      64A1     7.117448    42B1     7.209603    42B2     7.209694
      43B1     7.267457    43B2     7.267460    65A1     7.272875
      25A2     7.272910    66A1     7.367364    26A2     7.376814
      44B1     7.390264    44B2     7.425841    67A1     7.435285
      45B1     7.666102    45B2     7.666102    27A2     7.719527
      68A1     7.719527    46B1     7.906305    69A1     7.910602
      46B2     7.939480    47B1     8.186263    47B2     8.186280
      70A1     8.476605    28A2     8.718144    71A1     8.718144
      48B1     8.980493    48B2     8.980494    72A1     9.071746
      29A2     9.072048    73A1     9.164114    30A2     9.269485
      74A1     9.269509    49B1     9.312963    49B2     9.323873
      50B1     9.519695    50B2     9.535388    51B1     9.596741
      51B2     9.596744    75A1     9.785054    31A2    10.216320
      76A1    10.216411    32A2    10.788213    77A1    10.788226
      52B1    11.227226    52B2    11.239888    78A1    11.566295
      53B1    11.566658    53B2    11.583766    79A1    11.923866
      80A1    14.692551    54B1    19.356448    54B2    19.369863
      81A1    20.048970    33A2    20.049080    55B1    20.422590
      55B2    20.445388    56B1    20.574891    56B2    20.574891
      82A1    20.585839    34A2    20.585839    83A1    20.629543
      57B1    20.748908    57B2    20.748908    84A1    20.799109
      85A1    21.098050    35A2    21.098361    86A1    21.202567
      58B1    21.319677    58B2    21.329696    87A1    24.169308
      36A2    24.169308    59B1    24.257330    59B2    24.257334
      88A1    24.402013    37A2    24.402226    60B1    24.493581
      60B2    24.504868    89A1    24.646399    61B1    25.293299
      61B2    25.293299    90A1    25.563188    38A2    25.563237
      62B1    26.169521    62B2    26.181683    91A1    26.335432
      92A1    28.625881    39A2    28.625916    63B1    28.938517
      63B2    28.949916    93A1    29.417639    64B1    38.031312
      64B2    38.053621    94A1    39.762149    95A1    79.223498
      96A1    84.680720

    Beta Occupied:

       1A1  -105.375773     2A1   -26.720773     3A1   -11.085808
       4A1    -8.554720     1B2    -8.550841     1B1    -8.529592
       5A1    -2.021615     6A1    -1.419807     2B2    -1.094332
       7A1    -1.069895     2B1    -1.028841     3B2    -0.843324

    Beta Virtual:

       3B1    -0.383812     8A1    -0.228030     9A1    -0.117092
       4B2    -0.076760     4B1    -0.075179    10A1    -0.061603
      11A1    -0.010438     5B2    -0.000054     5B1     0.000145
       1A2     0.006101    12A1     0.006803     6B2     0.080728
       6B1     0.085677    13A1     0.090698    14A1     0.115705
       7B2     0.150135     7B1     0.157766    15A1     0.163293
       2A2     0.285139    16A1     0.285334     8B2     0.289632
      17A1     0.299132     8B1     0.311152     3A2     0.326351
      18A1     0.326827     9B2     0.365210     9B1     0.365237
      10B2     0.407640    10B1     0.408594    19A1     0.429521
      11B1     0.488645    11B2     0.493306    20A1     0.505871
      21A1     0.520692     4A2     0.521846    22A1     0.524012
      12B2     0.618130    12B1     0.619795    23A1     0.683941
      24A1     0.912974    13B2     0.996806    13B1     0.996814
      14B2     1.044127     5A2     1.047311    25A1     1.047364
      14B1     1.058096    26A1     1.061706     6A2     1.061908
      27A1     1.067991     7A2     1.078516    28A1     1.080350
      15B1     1.154776    15B2     1.164351    16B1     1.191621
      16B2     1.193479    17B2     1.207383    17B1     1.207402
      29A1     1.258107     8A2     1.258563    30A1     1.296408
      18B1     1.349895    18B2     1.349901    31A1     1.374161
       9A2     1.431548    32A1     1.431662    19B1     1.447860
      19B2     1.453807    33A1     1.499358    20B2     1.588839
      20B1     1.591297    34A1     1.640071    21B1     1.739824
      21B2     1.744048    35A1     1.797818    10A2     1.836899
      36A1     1.837683    37A1     2.277157    22B1     2.410602
      22B2     2.414743    38A1     2.682680    39A1     2.754646
      11A2     2.754966    23B1     2.812059    23B2     2.812123
      40A1     2.858137    12A2     2.864797    41A1     2.864797
      24B1     2.874142    24B2     2.874245    25B1     2.899160
      25B2     2.914041    13A2     2.925699    42A1     2.925728
      14A2     2.967702    43A1     2.968039    26B1     2.975231
      26B2     2.991615    44A1     3.005469    15A2     3.005643
      27B1     3.062520    27B2     3.062520    28B1     3.105527
      28B2     3.105557    45A1     3.218204    46A1     3.321233
      16A2     3.337609    47A1     3.337609    29B1     3.359481
      29B2     3.371610    48A1     3.539170    17A2     3.539247
      30B1     3.641112    30B2     3.650699    31B1     3.670006
      31B2     3.670035    49A1     3.771743    32B1     3.773908
      32B2     3.779751    18A2     3.789346    50A1     3.790072
      33B1     3.938317    33B2     3.938322    51A1     3.965948
      52A1     4.152660    19A2     4.153501    34B1     4.183110
      34B2     4.185443    53A1     4.188516    54A1     4.638076
      55A1     4.743848    35B1     4.758695    35B2     4.767782
      20A2     4.911525    56A1     4.911804    36B1     5.383055
      36B2     5.392879    37B1     6.166122    37B2     6.166128
      57A1     6.210161    38B1     6.214882    38B2     6.217703
      58A1     6.267352    21A2     6.271839    59A1     6.274517
      39B1     6.481244    39B2     6.502933    60A1     6.770641
      61A1     6.843872    22A2     6.843899    23A2     6.889530
      62A1     6.891239    24A2     6.998445    63A1     6.998445
      40B1     7.010577    40B2     7.011408    41B1     7.024624
      41B2     7.040436    64A1     7.121917    42B1     7.220285
      42B2     7.220308    43B1     7.287349    43B2     7.287349
      65A1     7.289298    25A2     7.289304    66A1     7.382253
      26A2     7.386047    44B1     7.406387    44B2     7.427802
      67A1     7.439681    45B1     7.666778    45B2     7.666778
      68A1     7.719762    27A2     7.719762    69A1     7.916670
      46B1     7.921553    46B2     7.941669    47B1     8.189323
      47B2     8.189327    70A1     8.482676    28A2     8.721268
      71A1     8.721268    48B1     8.982758    48B2     8.982758
      72A1     9.076217    29A2     9.076395    73A1     9.165460
      30A2     9.271930    74A1     9.271937    49B1     9.316453
      49B2     9.324083    50B1     9.525928    50B2     9.536526
      51B1     9.604857    51B2     9.604857    75A1     9.788005
      31A2    10.221886    76A1    10.221927    32A2    10.801572
      77A1    10.801580    52B1    11.239134    52B2    11.241963
      78A1    11.569920    53B1    11.575596    53B2    11.585489
      79A1    11.927747    80A1    14.700167    54B1    19.372179
      54B2    19.373140    33A2    20.065903    81A1    20.065917
      55B1    20.438216    55B2    20.447845    56B1    20.578931
      56B2    20.578931    82A1    20.588930    34A2    20.588930
      83A1    20.632489    57B1    20.751353    57B2    20.751353
      84A1    20.805407    85A1    21.100140    35A2    21.100325
      86A1    21.204044    58B1    21.323120    58B2    21.330343
      87A1    24.176529    36A2    24.176529    59B1    24.262761
      59B2    24.262762    88A1    24.406282    37A2    24.406366
      60B1    24.499118    60B2    24.506251    89A1    24.649509
      61B1    25.302985    61B2    25.302985    90A1    25.569914
      38A2    25.569924    62B1    26.177505    62B2    26.183563
      91A1    26.339372    92A1    28.635818    39A2    28.635820
      63B1    28.947747    63B2    28.951830    93A1    29.421450
      64B2    38.058198    64B1    38.069088    94A1    39.765873
      95A1    79.227123    96A1    84.688489

    Final Occupation by Irrep:
             A1    A2    B1    B2
    DOCC [     7,    0,    2,    3 ]
    SOCC [     0,    0,    1,    0 ]

  @UHF Final Energy:  -558.49027512627617

   => Energetics <=

    Nuclear Repulsion Energy =             53.1323247980055768
    One-Electron Energy =                -869.3468721160434143
    Two-Electron Energy =                 257.7242721917616564
    Total Energy =                       -558.4902751262761740

  UHF NO Occupations:
  HONO-2 :    2 B1 1.9987241
  HONO-1 :    7 A1 1.9942885
  HONO-0 :    3 B1 1.0000000
  LUNO+0 :    8 A1 0.0057115
  LUNO+1 :    4 B1 0.0012759
  LUNO+2 :    4 B2 0.0003369
  LUNO+3 :    9 A1 0.0001024

Computation Completed

Properties will be evaluated at   0.000000,   0.000000,   0.000000 [a0]

Properties computed using the SCF density matrix

  Nuclear Dipole Moment: [e a0]
     X:     0.0000      Y:     0.0000      Z:     0.4404

  Electronic Dipole Moment: [e a0]
     X:     0.0000      Y:     0.0000      Z:     0.4394

  Dipole Moment: [e a0]
     X:     0.0000      Y:     0.0000      Z:     0.8797     Total:     0.8797

  Dipole Moment: [D]
     X:     0.0000      Y:     0.0000      Z:     2.2361     Total:     2.2361

*** tstop() called on n412-045.vsc4.prov at Thu Jan 21 12:18:28 2021
Module time:
	user time   =     284.61 seconds =       4.74 minutes
	system time =      16.10 seconds =       0.27 minutes
	total time  =        228 seconds =       3.80 minutes
Total time:
	user time   =     284.61 seconds =       4.74 minutes
	system time =      16.10 seconds =       0.27 minutes
	total time  =        228 seconds =       3.80 minutes

*** tstart() called on n412-045.vsc4.prov
*** at Thu Jan 21 12:18:28 2021

	Wfn Parameters:
	--------------------
	Wavefunction         = CCSD_T
	Number of irreps     = 4
	Number of MOs        = 263
	Number of active MOs = 257
	AO-Basis             = NONE
	Semicanonical        = false
	Reference            = UHF
	Print Level          = 1

	IRREP	# MOs	# FZDC	# DOCC	# SOCC	# VIRT	# FZVR
	-----	-----	------	------	------	------	------
	 A1	   96	    4	    3	    0	    89	    0
	 A2	   39	    0	    0	    0	    39	    0
	 B1	   64	    1	    1	    1	    61	    0
	 B2	   64	    1	    2	    0	    61	    0
	Transforming integrals...
	IWL integrals will be deleted.
	(OO|OO)...
	Presorting SO-basis two-electron integrals.
	Sorting File: SO Ints (nn|nn) nbuckets = 1
	Constructing frozen core operators
	Starting AA/AB first half-transformation.
	Sorting AA/AB half-transformed integrals.
	Starting BB first half-transformation.
	Sorting BB half-transformed integrals.
	First half integral transformation complete.
	Starting AA second half-transformation.
	Starting AB second half-transformation.
	Starting BB second half-transformation.
	Two-electron integral transformation complete.
	(OO|OV)...
	Starting AA second half-transformation.
	Starting AB second half-transformation.
	Starting BB second half-transformation.
	Two-electron integral transformation complete.
	(OO|VV)...
	Starting AA second half-transformation.
	Starting AB second half-transformation.
	Starting BB second half-transformation.
	Two-electron integral transformation complete.
	(OV|OO)...
	Starting AA/AB first half-transformation.
	Sorting AA/AB half-transformed integrals.
	Starting BB first half-transformation.
	Sorting BB half-transformed integrals.
	First half integral transformation complete.
	Starting AA second half-transformation.
	Starting AB second half-transformation.
	Starting BB second half-transformation.
	Two-electron integral transformation complete.
	(OV|OV)...
	Starting AA second half-transformation.
	Starting AB second half-transformation.
	Starting BB second half-transformation.
	Two-electron integral transformation complete.
	(OV|VV)...
	Starting AA second half-transformation.
	Starting AB second half-transformation.
	Starting BB second half-transformation.
	Two-electron integral transformation complete.
	(VV|OO)...
	Starting AA/AB first half-transformation.
	Sorting AA/AB half-transformed integrals.
	Starting BB first half-transformation.
	Sorting BB half-transformed integrals.
	First half integral transformation complete.
	Starting AA second half-transformation.
	Starting AB second half-transformation.
	Starting BB second half-transformation.
	Two-electron integral transformation complete.
	(VV|OV)...
	Starting AA second half-transformation.
	Starting AB second half-transformation.
	Starting BB second half-transformation.
	Two-electron integral transformation complete.
	(VV|VV)...
	Starting AA second half-transformation.
	Starting AB second half-transformation.
	Starting BB second half-transformation.
	Two-electron integral transformation complete.
	Frozen core energy     =   -556.34836077046498

	Size of irrep 0 of <AB|CD> integrals:     69.172 (MW) /    553.380 (MB)
	Size of irrep 1 of <AB|CD> integrals:     51.725 (MW) /    413.799 (MB)
	Size of irrep 2 of <AB|CD> integrals:     60.965 (MW) /    487.719 (MB)
	Size of irrep 3 of <AB|CD> integrals:     60.965 (MW) /    487.719 (MB)
	Total:                                   242.827 (MW) /   1942.617 (MB)

	Size of irrep 0 of <ab|cd> integrals:     70.191 (MW) /    561.527 (MB)
	Size of irrep 1 of <ab|cd> integrals:     52.606 (MW) /    420.848 (MB)
	Size of irrep 2 of <ab|cd> integrals:     62.363 (MW) /    498.901 (MB)
	Size of irrep 3 of <ab|cd> integrals:     61.575 (MW) /    492.603 (MB)
	Total:                                   246.735 (MW) /   1973.879 (MB)

	Size of irrep 0 of <Ab|Cd> integrals:    287.133 (MW) /   2297.064 (MB)
	Size of irrep 1 of <Ab|Cd> integrals:    208.658 (MW) /   1669.264 (MB)
	Size of irrep 2 of <Ab|Cd> integrals:    246.647 (MW) /   1973.176 (MB)
	Size of irrep 3 of <Ab|Cd> integrals:    245.079 (MW) /   1960.632 (MB)
	Total:                                   987.517 (MW) /   7900.137 (MB)

	Size of irrep 0 of <IA|BC> integrals:      8.628 (MW) /     69.022 (MB)
	Size of irrep 1 of <IA|BC> integrals:      5.193 (MW) /     41.541 (MB)
	Size of irrep 2 of <IA|BC> integrals:      6.855 (MW) /     54.843 (MB)
	Size of irrep 3 of <IA|BC> integrals:      6.855 (MW) /     54.843 (MB)
	Total:                                    27.531 (MW) /    220.250 (MB)

	Size of irrep 0 of <ia|bc> integrals:      7.670 (MW) /     61.361 (MB)
	Size of irrep 1 of <ia|bc> integrals:      4.381 (MW) /     35.046 (MB)
	Size of irrep 2 of <ia|bc> integrals:      5.575 (MW) /     44.602 (MB)
	Size of irrep 3 of <ia|bc> integrals:      6.278 (MW) /     50.221 (MB)
	Total:                                    23.904 (MW) /    191.231 (MB)

	Size of irrep 0 of <Ia|Bc> integrals:      8.693 (MW) /     69.542 (MB)
	Size of irrep 1 of <Ia|Bc> integrals:      5.244 (MW) /     41.948 (MB)
	Size of irrep 2 of <Ia|Bc> integrals:      6.942 (MW) /     55.533 (MB)
	Size of irrep 3 of <Ia|Bc> integrals:      6.873 (MW) /     54.980 (MB)
	Total:                                    27.750 (MW) /    222.004 (MB)

	Size of irrep 0 of <iA|bC> integrals:      7.625 (MW) /     61.002 (MB)
	Size of irrep 1 of <iA|bC> integrals:      4.333 (MW) /     34.668 (MB)
	Size of irrep 2 of <iA|bC> integrals:      5.497 (MW) /     43.974 (MB)
	Size of irrep 3 of <iA|bC> integrals:      6.262 (MW) /     50.096 (MB)
	Total:                                    23.718 (MW) /    189.740 (MB)

	Size of irrep 0 of tIjAb amplitudes:       0.254 (MW) /      2.033 (MB)
	Size of irrep 1 of tIjAb amplitudes:       0.087 (MW) /      0.693 (MB)
	Size of irrep 2 of tIjAb amplitudes:       0.141 (MW) /      1.131 (MB)
	Size of irrep 3 of tIjAb amplitudes:       0.188 (MW) /      1.503 (MB)
	Total:                                     0.670 (MW) /      5.360 (MB)

	Nuclear Rep. energy          =     53.13232479800558
	SCF energy                   =   -558.49027512627617
	One-electron energy          =    -94.38405016745764
	Two-electron (AA) energy     =      9.38902335381848
	Two-electron (BB) energy     =      6.99540374398952
	Two-electron (AB) energy     =     22.72538391583340
	Two-electron energy          =     39.10981101364139
	Reference energy             =   -558.49027512627561

*** tstop() called on n412-045.vsc4.prov at Thu Jan 21 12:24:25 2021
Module time:
	user time   =     122.16 seconds =       2.04 minutes
	system time =      72.68 seconds =       1.21 minutes
	total time  =        357 seconds =       5.95 minutes
Total time:
	user time   =     406.77 seconds =       6.78 minutes
	system time =      88.78 seconds =       1.48 minutes
	total time  =        585 seconds =       9.75 minutes

      * MP2 total energy                      = -558.961831615233336
      * CCSD total energy                     = -558.975224525463886
      * CCSD(T) total energy                     = -558.996027897391286
*** Psi4 exiting successfully. Buy a developer a beer!
