                               Psi4 1.4a3.dev88

  ==> Input File <==

--------------------------------------------------------------------------
# Any line starting with the # character is a comment line
memory 250000 mb
molecule molecule{
1 2
Cl         0.0000000000        0.0000000000        0.5316695235
F          0.0000000000        0.0000000000       -0.9921507411
}

set {
  reference uhf
  basis aug-cc-pV(t+d)Z
  scf_type OUT_OF_CORE
  freeze_core true
}

energy('ccsd(t)')
--------------------------------------------------------------------------

    Molecular point group: c2v

    Geometry (in Angstrom), charge = 1, multiplicity = 2:

       Center              X                  Y                   Z               Mass
    ------------   -----------------  -----------------  -----------------  -----------------
         CL           0.000000000000     0.000000000000     0.536439203388    34.968852682000
         F            0.000000000000     0.000000000000    -0.987381061212    18.998403162730

  Charge       = 1
  Multiplicity = 2
  Basis Set: AUG-CC-PV(T+D)Z
    Blend: AUG-CC-PV(T+D)Z

    Orbital Energies [Eh]
    ---------------------

    Alpha Occupied:

       1A1  -105.390716     2A1   -26.734962     3A1   -11.099317
       1B2    -8.583339     4A1    -8.561378     1B1    -8.557488
       5A1    -2.048530     6A1    -1.522934     2B2    -1.132031
       2B1    -1.103964     7A1    -1.091058     3B2    -0.929749
       3B1    -0.863039

    Alpha Virtual:

       8A1    -0.251154     9A1    -0.105977     4B2    -0.075380
       4B1    -0.068098    10A1    -0.051896    11A1     0.020790
       1A2     0.024072    12A1     0.029891     5B2     0.035751
       5B1     0.043025     6B2     0.121516     6B1     0.142060
      13A1     0.173087    14A1     0.237900     7B2     0.305568
       7B1     0.331083    15A1     0.370333    16A1     0.464180
       2A2     0.465038     8B2     0.490650     8B1     0.518488
      17A1     0.561665    18A1     0.614735     3A2     0.614973
      19A1     0.696537     9B2     0.822789     9B1     0.829481
      10B2     0.831420    10B1     0.831483    11B2     0.943448
      11B1     0.965458    20A1     0.974687    21A1     1.011898
       4A2     1.014378    22A1     1.033920    12B2     1.295391
      12B1     1.315687    23A1     1.390979     5A2     1.864414
      24A1     1.864533    25A1     1.965984    13B2     1.973142
      13B1     2.013189    26A1     2.040133    14B2     2.224165
      14B1     2.258299    15B2     2.399228    27A1     2.401969
       6A2     2.402343    15B1     2.432272    16B2     2.582542
      16B1     2.582594    28A1     2.605963    17B2     2.629986
      17B1     2.630012    29A1     2.703185     7A2     2.703402
      30A1     2.884706     8A2     2.905130    31A1     2.909295
      18B2     2.960176    18B1     2.981904    32A1     3.492280
      19B2     3.589078    19B1     3.608783    33A1     3.650511
      20B2     4.958511    20B1     4.972513    34A1     5.282022
      35A1     6.239576    36A1     8.282540     9A2     8.282808
      21B2     8.334894    21B1     8.361595    22B2     8.448160
      22B1     8.448161    37A1     8.501112    38A1     8.537850
      10A2     8.537960    39A1     8.795232    23B2     8.858577
      23B1     8.869115    11A2     8.933570    40A1     8.933615
      24B2     9.060213    24B1     9.073564    41A1     9.646457
      42A1    14.096674

    Beta Occupied:

       1A1  -105.378668     2A1   -26.726280     3A1   -11.086888
       4A1    -8.555987     1B1    -8.551143     1B2    -8.531135
       5A1    -2.023884     6A1    -1.420824     2B1    -1.094664
       7A1    -1.070394     2B2    -1.029064     3B1    -0.843345

    Beta Virtual:

       3B2    -0.384577     8A1    -0.228358     9A1    -0.102687
       4B1    -0.067411     4B2    -0.064949    10A1    -0.049459
      11A1     0.028122     5B1     0.043360     5B2     0.045236
       1A2     0.057334    12A1     0.058170     6B1     0.142765
       6B2     0.155986    13A1     0.174045    14A1     0.245506
       7B1     0.334654     7B2     0.351775    15A1     0.375435
       2A2     0.518263    16A1     0.518382     8B1     0.520159
       8B2     0.534576    17A1     0.569041     3A2     0.619251
      18A1     0.619799    19A1     0.713487     9B1     0.830673
       9B2     0.836335    10B1     0.849550    10B2     0.849554
      11B2     0.964790    11B1     0.966177    20A1     0.981112
      21A1     1.022964     4A2     1.023963    22A1     1.035405
      12B2     1.311457    12B1     1.317520    23A1     1.408705
      24A1     1.893215     5A2     1.893484    25A1     1.969508
      13B2     2.007364    13B1     2.015054    26A1     2.042928
      14B1     2.263554    14B2     2.271585     6A2     2.413107
      27A1     2.413177    15B2     2.435201    15B1     2.437046
      16B1     2.598024    16B2     2.598024    28A1     2.618252
      17B2     2.656668    17B1     2.656668    29A1     2.722298
       7A2     2.722383    30A1     2.898045     8A2     2.913618
      31A1     2.914021    18B2     2.981037    18B1     2.983824
      32A1     3.499219    19B2     3.601048    19B1     3.609679
      33A1     3.655267    20B1     4.976872    20B2     4.987361
      34A1     5.291145    35A1     6.253453    36A1     8.296538
       9A2     8.296660    21B2     8.348147    21B1     8.363235
      22B2     8.456993    22B1     8.456993    37A1     8.506830
      38A1     8.543898    10A2     8.543918    39A1     8.798697
      23B2     8.865704    23B1     8.870328    11A2     8.951616
      40A1     8.951627    24B1     9.076484    24B2     9.077284
      41A1     9.652013    42A1    14.104620

    Final Occupation by Irrep:
             A1    A2    B1    B2
    DOCC [     7,    0,    3,    2 ]
    SOCC [     0,    0,    0,    1 ]

  @UHF Final Energy:  -558.47550524628139

   => Energetics <=

    Nuclear Repulsion Energy =             53.1323247980055768
    One-Electron Energy =                -869.2848787086470566
    Two-Electron Energy =                 257.6770486643601430
    Total Energy =                       -558.4755052462812728

  UHF NO Occupations:
  HONO-2 :    2 B2 1.9987284
  HONO-1 :    7 A1 1.9943765
  HONO-0 :    3 B2 1.0000000
  LUNO+0 :    8 A1 0.0056235
  LUNO+1 :    4 B2 0.0012716
  LUNO+2 :    4 B1 0.0003191
  LUNO+3 :    9 A1 0.0001023

Computation Completed

Properties will be evaluated at   0.000000,   0.000000,   0.000000 [a0]

Properties computed using the SCF density matrix

  Nuclear Dipole Moment: [e a0]
     X:     0.0000      Y:     0.0000      Z:     0.4404

  Electronic Dipole Moment: [e a0]
     X:     0.0000      Y:     0.0000      Z:     0.4418

  Dipole Moment: [e a0]
     X:     0.0000      Y:     0.0000      Z:     0.8822     Total:     0.8822

  Dipole Moment: [D]
     X:     0.0000      Y:     0.0000      Z:     2.2423     Total:     2.2423

*** tstop() called on n412-040.vsc4.prov at Tue Jan 26 18:12:18 2021
Module time:
	user time   =      46.89 seconds =       0.78 minutes
	system time =       3.03 seconds =       0.05 minutes
	total time  =         10 seconds =       0.17 minutes
Total time:
	user time   =      46.89 seconds =       0.78 minutes
	system time =       3.03 seconds =       0.05 minutes
	total time  =         10 seconds =       0.17 minutes

*** tstart() called on n412-040.vsc4.prov
*** at Tue Jan 26 18:12:18 2021

	Wfn Parameters:
	--------------------
	Wavefunction         = CCSD_T
	Number of irreps     = 4
	Number of MOs        = 101
	Number of active MOs = 95
	AO-Basis             = NONE
	Semicanonical        = false
	Reference            = UHF
	Print Level          = 1

	IRREP	# MOs	# FZDC	# DOCC	# SOCC	# VIRT	# FZVR
	-----	-----	------	------	------	------	------
	 A1	   42	    4	    3	    0	    35	    0
	 A2	   11	    0	    0	    0	    11	    0
	 B1	   24	    1	    2	    0	    21	    0
	 B2	   24	    1	    1	    1	    21	    0
	Transforming integrals...
	IWL integrals will be deleted.
	(OO|OO)...
	Presorting SO-basis two-electron integrals.
	Sorting File: SO Ints (nn|nn) nbuckets = 1
	Constructing frozen core operators
	Starting AA/AB first half-transformation.
	Sorting AA/AB half-transformed integrals.
	Starting BB first half-transformation.
	Sorting BB half-transformed integrals.
	First half integral transformation complete.
	Starting AA second half-transformation.
	Starting AB second half-transformation.
	Starting BB second half-transformation.
	Two-electron integral transformation complete.
	(OO|OV)...
	Starting AA second half-transformation.
	Starting AB second half-transformation.
	Starting BB second half-transformation.
	Two-electron integral transformation complete.
	(OO|VV)...
	Starting AA second half-transformation.
	Starting AB second half-transformation.
	Starting BB second half-transformation.
	Two-electron integral transformation complete.
	(OV|OO)...
	Starting AA/AB first half-transformation.
	Sorting AA/AB half-transformed integrals.
	Starting BB first half-transformation.
	Sorting BB half-transformed integrals.
	First half integral transformation complete.
	Starting AA second half-transformation.
	Starting AB second half-transformation.
	Starting BB second half-transformation.
	Two-electron integral transformation complete.
	(OV|OV)...
	Starting AA second half-transformation.
	Starting AB second half-transformation.
	Starting BB second half-transformation.
	Two-electron integral transformation complete.
	(OV|VV)...
	Starting AA second half-transformation.
	Starting AB second half-transformation.
	Starting BB second half-transformation.
	Two-electron integral transformation complete.
	(VV|OO)...
	Starting AA/AB first half-transformation.
	Sorting AA/AB half-transformed integrals.
	Starting BB first half-transformation.
	Sorting BB half-transformed integrals.
	First half integral transformation complete.
	Starting AA second half-transformation.
	Starting AB second half-transformation.
	Starting BB second half-transformation.
	Two-electron integral transformation complete.
	(VV|OV)...
	Starting AA second half-transformation.
	Starting AB second half-transformation.
	Starting BB second half-transformation.
	Two-electron integral transformation complete.
	(VV|VV)...
	Starting AA second half-transformation.
	Starting AB second half-transformation.
	Starting BB second half-transformation.
	Two-electron integral transformation complete.
	Frozen core energy     =   -556.34348760160844

	Size of irrep 0 of <AB|CD> integrals:      1.145 (MW) /      9.159 (MB)
	Size of irrep 1 of <AB|CD> integrals:      0.682 (MW) /      5.458 (MB)
	Size of irrep 2 of <AB|CD> integrals:      0.933 (MW) /      7.465 (MB)
	Size of irrep 3 of <AB|CD> integrals:      0.933 (MW) /      7.465 (MB)
	Total:                                     3.693 (MW) /     29.548 (MB)

	Size of irrep 0 of <ab|cd> integrals:      1.190 (MW) /      9.522 (MB)
	Size of irrep 1 of <ab|cd> integrals:      0.717 (MW) /      5.739 (MB)
	Size of irrep 2 of <ab|cd> integrals:      0.955 (MW) /      7.636 (MB)
	Size of irrep 3 of <ab|cd> integrals:      1.002 (MW) /      8.016 (MB)
	Total:                                     3.864 (MW) /     30.914 (MB)

	Size of irrep 0 of <Ab|Cd> integrals:      5.058 (MW) /     40.464 (MB)
	Size of irrep 1 of <Ab|Cd> integrals:      2.799 (MW) /     22.391 (MB)
	Size of irrep 2 of <Ab|Cd> integrals:      3.775 (MW) /     30.202 (MB)
	Size of irrep 3 of <Ab|Cd> integrals:      3.869 (MW) /     30.953 (MB)
	Total:                                    15.501 (MW) /    124.010 (MB)

	Size of irrep 0 of <IA|BC> integrals:      0.421 (MW) /      3.369 (MB)
	Size of irrep 1 of <IA|BC> integrals:      0.193 (MW) /      1.546 (MB)
	Size of irrep 2 of <IA|BC> integrals:      0.299 (MW) /      2.396 (MB)
	Size of irrep 3 of <IA|BC> integrals:      0.299 (MW) /      2.396 (MB)
	Total:                                     1.213 (MW) /      9.706 (MB)

	Size of irrep 0 of <ia|bc> integrals:      0.384 (MW) /      3.070 (MB)
	Size of irrep 1 of <ia|bc> integrals:      0.166 (MW) /      1.328 (MB)
	Size of irrep 2 of <ia|bc> integrals:      0.281 (MW) /      2.251 (MB)
	Size of irrep 3 of <ia|bc> integrals:      0.246 (MW) /      1.970 (MB)
	Total:                                     1.077 (MW) /      8.619 (MB)

	Size of irrep 0 of <Ia|Bc> integrals:      0.430 (MW) /      3.436 (MB)
	Size of irrep 1 of <Ia|Bc> integrals:      0.199 (MW) /      1.593 (MB)
	Size of irrep 2 of <Ia|Bc> integrals:      0.301 (MW) /      2.409 (MB)
	Size of irrep 3 of <Ia|Bc> integrals:      0.311 (MW) /      2.486 (MB)
	Total:                                     1.241 (MW) /      9.925 (MB)

	Size of irrep 0 of <iA|bC> integrals:      0.378 (MW) /      3.023 (MB)
	Size of irrep 1 of <iA|bC> integrals:      0.161 (MW) /      1.285 (MB)
	Size of irrep 2 of <iA|bC> integrals:      0.280 (MW) /      2.238 (MB)
	Size of irrep 3 of <iA|bC> integrals:      0.236 (MW) /      1.888 (MB)
	Total:                                     1.054 (MW) /      8.434 (MB)

	Size of irrep 0 of tIjAb amplitudes:       0.034 (MW) /      0.270 (MB)
	Size of irrep 1 of tIjAb amplitudes:       0.010 (MW) /      0.080 (MB)
	Size of irrep 2 of tIjAb amplitudes:       0.023 (MW) /      0.187 (MB)
	Size of irrep 3 of tIjAb amplitudes:       0.018 (MW) /      0.142 (MB)
	Total:                                     0.085 (MW) /      0.678 (MB)

	Nuclear Rep. energy          =     53.13232479800558
	SCF energy                   =   -558.47550524628139
	One-electron energy          =    -94.35520478726221
	Two-electron (AA) energy     =      9.38508349289714
	Two-electron (BB) energy     =      6.99154185177177
	Two-electron (AB) energy     =     22.71423699991520
	Two-electron energy          =     39.09086234458411
	Reference energy             =   -558.47550524628093

*** tstop() called on n412-040.vsc4.prov at Tue Jan 26 18:12:29 2021
Module time:
	user time   =       2.82 seconds =       0.05 minutes
	system time =       1.66 seconds =       0.03 minutes
	total time  =         11 seconds =       0.18 minutes
Total time:
	user time   =      49.71 seconds =       0.83 minutes
	system time =       4.69 seconds =       0.08 minutes
	total time  =         21 seconds =       0.35 minutes
            **************************
            *                        *
            *        CCENERGY        *
            *                        *
            **************************

    Nuclear Rep. energy (wfn)     =   53.132324798005577
    SCF energy          (wfn)     = -558.475505246281386
    Reference energy    (file100) = -558.475505246280932

    Input parameters:
    -----------------
    Wave function   =     CCSD_T
    Reference wfn   =     UHF
    Brueckner       =     No
    Memory (Mbytes) =     250000.0
    Maxiter         =     50
    R_Convergence   =     1.0e-07
    E_Convergence   =     1.0e-06
    Restart         =     Yes
    DIIS            =     Yes
    AO Basis        =     NONE
    ABCD            =     NEW
    Cache Level     =     2
    Cache Type      =     LRU
    Print Level     =     1
    Num. of threads =     48
    # Amps to Print =     10
    Print MP2 Amps? =     No
    Analyze T2 Amps =     No
    Print Pair Ener =     No
    Local CC        =     No
    SCS-MP2         =     False
    SCSN-MP2        =     False
    SCS-CCSD        =     False

MP2 correlation energy -0.4236906312034017
                Solving CC Amplitude Equations
                ------------------------------
  Iter             Energy              RMS        T1Diag      D1Diag    New D1Diag    D2Diag
  ----     ---------------------    ---------   ----------  ----------  ----------   --------
     0        -0.423690631203402    0.000e+00    0.000000    0.000000    0.000000    0.000000
     1        -0.426189496573320    9.745e-02    0.022375    0.000000    0.000000    0.000000
     2        -0.439385692968683    3.390e-02    0.022497    0.000000    0.000000    0.000000
     3        -0.443923992838443    2.511e-02    0.029969    0.000000    0.000000    0.000000
     4        -0.443653384992242    1.163e-02    0.034822    0.000000    0.000000    0.000000
     5        -0.443900549206591    6.676e-03    0.039072    0.000000    0.000000    0.000000
     6        -0.443985492634869    1.814e-03    0.039983    0.000000    0.000000    0.000000
     7        -0.443981587987211    5.539e-04    0.040188    0.000000    0.000000    0.000000
     8        -0.443986954230756    2.025e-04    0.040186    0.000000    0.000000    0.000000
     9        -0.443987325813086    7.838e-05    0.040206    0.000000    0.000000    0.000000
    10        -0.443985063392213    2.898e-05    0.040201    0.000000    0.000000    0.000000
    11        -0.443986095155265    1.151e-05    0.040202    0.000000    0.000000    0.000000
    12        -0.443985936100668    4.920e-06    0.040203    0.000000    0.000000    0.000000
    13        -0.443986159478911    2.086e-06    0.040202    0.000000    0.000000    0.000000
    14        -0.443986214085505    6.161e-07    0.040203    0.000000    0.000000    0.000000
    15        -0.443986181205564    2.257e-07    0.040202    0.000000    0.000000    0.000000
    16        -0.443986183338261    8.368e-08    0.040203    0.000000    0.000000    0.000000

    Iterations converged.

    Largest TIA Amplitudes:
              2   0        -0.0161609269
              5  68         0.0135490200
              2  11        -0.0127519745
              5  69         0.0119932812
              3  47        -0.0117224780
              3  48        -0.0108052532
              5  71        -0.0079779159
              2   6        -0.0069019784
              2   9         0.0066166115
              2  15        -0.0064664511

    Largest Tia Amplitudes:
              5  67        -0.1299359450
              1   0         0.0179896482
              5  68         0.0139902737
              5  71        -0.0132670445
              1   4        -0.0128302450
              3  48        -0.0123500184
              3  47        -0.0120652305
              1   8         0.0114463629
              5  70        -0.0100798285
              2   4        -0.0099604202

    Largest TIJAB Amplitudes:
      4   2  48   0        -0.0183067330
      6   2  69   0        -0.0180071892
      4   2  50   0         0.0166738472
      6   4  35   8        -0.0163334579
      6   2  71   0         0.0160036570
      6   4  36   8        -0.0157418411
      6   4  35   3         0.0143209455
      6   4  35   4        -0.0136049648
      6   2  68   0        -0.0129259842
      6   4  36   3         0.0118761789

    Largest Tijab Amplitudes:
      5   2  67   0        -0.0443339181
      4   2  48   0        -0.0182821000
      5   2  67   6         0.0170950226
      5   2  67   2        -0.0167318271
      4   2  50   0         0.0164544561
      5   4  67  48        -0.0122944927
      4   1  67  35         0.0115770918
      5   2  67  11         0.0112412736
      4   1  67  36         0.0109953155

      * MP2 total energy                      = -558.899195877484317
      * CCSD total energy                     = -558.919491429619143
      * CCSD(T) total energy                     = -558.937735963695104
*** Psi4 exiting successfully. Buy a developer a beer!
