                               Psi4 1.4a3.dev88

  ==> Input File <==

--------------------------------------------------------------------------
# Any line starting with the # character is a comment line
memory 250000 mb
molecule molecule{
1 2
Cl         0.0000000000        0.0000000000        0.5316695235
F          0.0000000000        0.0000000000       -0.9921507411
}

set {
  reference uhf
  basis aug-cc-pV(6+d)Z
  scf_type OUT_OF_CORE
  freeze_core true
}

energy('ccsd(t)')
--------------------------------------------------------------------------

    Molecular point group: c2v

    Geometry (in Angstrom), charge = 1, multiplicity = 2:

       Center              X                  Y                   Z               Mass
    ------------   -----------------  -----------------  -----------------  -----------------
         CL           0.000000000000     0.000000000000     0.536439203388    34.968852682000
         F            0.000000000000     0.000000000000    -0.987381061212    18.998403162730

  Charge       = 1
  Multiplicity = 2
  Basis Set: AUG-CC-PV(6+D)Z
    Blend: AUG-CC-PV(6+D)Z

    Orbital Energies [Eh]
    ---------------------

    Alpha Occupied:

       1A1  -105.387723     2A1   -26.729277     3A1   -11.097788
       1B1    -8.582859     4A1    -8.559751     1B2    -8.557199
       5A1    -2.046203     6A1    -1.522024     2B1    -1.131591
       2B2    -1.103609     7A1    -1.090488     3B1    -0.929647
       3B2    -0.862904

    Alpha Virtual:

       8A1    -0.250863     9A1    -0.121873     4B1    -0.085621
       4B2    -0.080249    10A1    -0.067346    11A1    -0.024199
       1A2    -0.018276     5B1    -0.018110    12A1    -0.016074
       5B2    -0.014166     6B1     0.055780    13A1     0.056211
       6B2     0.066271    14A1     0.089992     7B1     0.090494
       7B2     0.100855    15A1     0.116391    16A1     0.210678
       2A2     0.211302     8B1     0.214228     8B2     0.235435
      17A1     0.238656    18A1     0.272468     3A2     0.272601
       9B1     0.300793     9B2     0.307740    10B1     0.314881
      10B2     0.314917    19A1     0.356224    20A1     0.395557
      21A1     0.418862    11B1     0.419360    11B2     0.425845
       4A2     0.445235    22A1     0.445512    12B1     0.500364
      12B2     0.516506    23A1     0.552794    13B1     0.725065
      13B2     0.752336    14B1     0.753342    14B2     0.753458
      24A1     0.770685     5A2     0.770686    25A1     0.786636
      26A1     0.854085     6A2     0.855707    27A1     0.877663
      15B1     0.896739    15B2     0.911311     7A2     0.916859
      28A1     0.918802    29A1     1.008687    16B1     1.018463
      16B2     1.033595    30A1     1.046545     8A2     1.047113
      17B1     1.059264    17B2     1.059367    31A1     1.067195
      18B1     1.098091    18B2     1.098442    32A1     1.113994
      19B1     1.114501    19B2     1.126300     9A2     1.158662
      33A1     1.158958    34A1     1.226893    20B1     1.247258
      20B2     1.261621    21B1     1.421998    21B2     1.434174
      35A1     1.480944    10A2     1.547906    36A1     1.548957
      22B1     1.888293    22B2     1.904627    37A1     1.976147
      38A1     2.038036    11A2     2.038037    23B1     2.078125
      23B2     2.078251    39A1     2.093262    24B1     2.104382
      24B2     2.104384    12A2     2.119701    40A1     2.119725
      25B1     2.183198    41A1     2.186754    13A2     2.186898
      25B2     2.209354    26B1     2.279604    26B2     2.279716
      42A1     2.324316    43A1     2.415412    14A2     2.417144
      44A1     2.467224    27B1     2.482527    27B2     2.528621
      45A1     2.534582    28B1     2.538820    15A2     2.542203
      28B2     2.545525    46A1     2.553969    16A2     2.554366
      29B1     2.558334    47A1     2.568443    29B2     2.581108
      30B1     2.629025    17A2     2.644626    48A1     2.645201
      30B2     2.649543    49A1     2.678694    31B1     2.885241
      31B2     2.889100    32B1     2.889674    32B2     2.894609
      50A1     2.993301    18A2     2.994565    51A1     3.010084
      33B1     3.135689    33B2     3.135697    34B1     3.248111
      34B2     3.262676    52A1     3.267317    19A2     3.267786
      53A1     3.279742    54A1     3.347436    35B1     3.419301
      35B2     3.434280    55A1     3.887961    36B1     3.912097
      36B2     3.929648    20A2     4.014467    56A1     4.014604
      57A1     4.162577    37B1     4.348271    37B2     4.381993
      58A1     4.554463    38B1     4.587492    38B2     4.587628
      21A2     4.620391    59A1     4.620941    22A2     4.651835
      60A1     4.656850    23A2     4.775151    61A1     4.775155
      39B1     4.775818    39B2     4.775818    24A2     4.830533
      62A1     4.830533    40B1     4.986799    40B2     4.986827
      41B1     5.000498    41B2     5.000597    63A1     5.024107
      25A2     5.024110    42B1     5.060987    42B2     5.088424
      64A1     5.196494    26A2     5.245576    65A1     5.252587
      43B1     5.328211    43B2     5.359995    44B1     5.429135
      44B2     5.429201    66A1     5.447020    67A1     5.547588
      27A2     5.548233    45B1     5.570309    45B2     5.570309
      46B1     5.590302    46B2     5.590341    68A1     5.723358
      47B1     5.736378    47B2     5.765744    28A2     5.785502
      69A1     5.787890    70A1     5.997061    29A2     6.094328
      71A1     6.094328    48B1     6.141854    48B2     6.170384
      72A1     6.362915    30A2     6.364864    73A1     6.434066
      49B1     6.577220    49B2     6.596808    31A2     6.601322
      74A1     6.601322    50B1     6.770568    50B2     6.770580
      75A1     6.801474    32A2     6.802234    76A1     6.834943
      51B1     6.918048    51B2     6.945020    52B1     6.945139
      52B2     6.950935    77A1     7.061608    78A1     7.208866
      33A2     7.208993    53B1     7.247404    53B2     7.259769
      54B1     7.374227    54B2     7.374230    79A1     7.460459
      80A1     7.912675    34A2     7.912688    81A1     7.940388
      55B1     8.200495    55B2     8.235399    35A2     8.637403
      82A1     8.637622    56B1     8.662680    56B2     8.678889
      57B1     8.764452    57B2     8.789102    83A1     8.851801
      84A1     9.453772    36A2     9.453772    58B1     9.486492
      58B2     9.486523    85A1     9.560770    59B1     9.775598
      59B2     9.802754    86A1     9.868403    37A2     9.872479
      87A1     9.900588    60B1    10.335741    60B2    10.360689
      88A1    10.410601    61B1    10.546092    61B2    10.546111
      38A2    10.560613    89A1    10.560614    62B1    10.571887
      62B2    10.571935    39A2    10.591175    90A1    10.592476
      40A2    10.636080    91A1    10.636144    63B1    10.808812
      63B2    10.808813    92A1    10.809689    41A2    10.809694
      93A1    10.839856    64B1    10.975498    64B2    10.975633
      65B1    11.209461    65B2    11.247594    42A2    11.323482
      94A1    11.323611    95A1    11.764198    43A2    11.764198
      66B1    11.773731    66B2    11.773731    96A1    11.836413
      67B1    11.904667    67B2    11.930082    68B1    11.949242
      68B2    11.952088    44A2    11.964484    97A1    11.964484
      98A1    12.062151    45A2    12.062410    99A1    12.137930
      69B1    12.462843    69B2    12.492735    70B1    12.702494
      70B2    12.702517   100A1    12.789921   101A1    12.969321
      46A2    12.969481    71B1    13.467117    71B2    13.491426
      72B1    13.683422    72B2    13.683422   102A1    13.788460
      47A2    13.789731   103A1    13.791618    48A2    13.872292
     104A1    13.872292   105A1    14.342950    73B1    14.390133
      73B2    14.390134    49A2    14.700995   106A1    14.701000
      74B1    14.718461    74B2    14.734004    75B1    14.812376
      75B2    14.828786   107A1    15.065067   108A1    16.121771
      50A2    16.121771    76B1    16.315691    76B2    16.315691
      77B1    16.498038    77B2    16.498038   109A1    16.533495
     110A1    16.836762    51A2    16.836808    78B1    17.141451
      78B2    17.154136    52A2    17.246103   111A1    17.246151
     112A1    17.499749    79B1    17.954276    79B2    17.966799
      53A2    18.292971   113A1    18.292972   114A1    18.841035
      80B1    19.902251    80B2    19.915047   115A1    20.696601
     116A1    26.484203    81B1    28.242451    81B2    28.254905
      82B1    28.956366    82B2    28.956366   117A1    28.968307
      54A2    28.968307   118A1    29.035776    55A2    29.035776
      83B1    29.299819    83B2    29.299820   119A1    29.677808
      56A2    29.678138    84B1    29.730500    84B2    29.739873
     120A1    29.762232   121A1    29.894736    85B1    34.637020
      85B2    34.637020   122A1    34.705033    57A2    34.705033
      86B1    34.931628    86B2    34.931641    87B1    35.048560
      87B2    35.062012   123A1    35.078597    58A2    35.079131
     124A1    35.175975    88B1    35.284190    88B2    35.308282
     125A1    38.363922    59A2    38.683623   126A1    38.683798
      89B1    38.923789    89B2    38.923789    90B1    39.216601
      90B2    39.235344   127A1    39.353136    60A2    39.353170
     128A1    39.769769    91B1    39.858242    91B2    39.870788
      61A2    39.914137   129A1    39.914137    92B1    40.018288
      92B2    40.018289   130A1    40.399456    62A2    40.399483
     131A1    40.488392    93B1    40.693163    93B2    40.705077
     132A1    41.766097   133A1    43.857897    63A2    43.857907
      94B1    44.935426    94B2    44.946001   134A1    45.551868
     135A1   130.014700   136A1   286.825580

    Beta Occupied:

       1A1  -105.374829     2A1   -26.720674     3A1   -11.085475
       4A1    -8.554219     1B2    -8.550696     1B1    -8.528927
       5A1    -2.021549     6A1    -1.419742     2B2    -1.094306
       7A1    -1.069886     2B1    -1.028825     3B2    -0.843359

    Beta Virtual:

       3B1    -0.383728     8A1    -0.228064     9A1    -0.119525
       4B2    -0.079798     4B1    -0.078494    10A1    -0.065645
      11A1    -0.021049     5B1    -0.014236     5B2    -0.014041
       1A2    -0.001013    12A1    -0.000434    13A1     0.057667
       6B2     0.066637     6B1     0.070264    14A1     0.091734
       7B2     0.102089     7B1     0.107839    15A1     0.118730
       8B2     0.236307    16A1     0.242094     2A2     0.246624
      17A1     0.246952     8B1     0.253254     3A2     0.283379
      18A1     0.283788     9B2     0.307770     9B1     0.310128
      10B2     0.317712    10B1     0.317783    19A1     0.359364
      20A1     0.399101    21A1     0.420278    11B1     0.421976
      11B2     0.425746     4A2     0.447915    22A1     0.448330
      12B2     0.518999    12B1     0.522459    23A1     0.565307
      13B2     0.754043    13B1     0.754070    14B2     0.755472
      14B1     0.770796    24A1     0.772627     5A2     0.772630
      25A1     0.789623     6A2     0.860548    26A1     0.860735
      27A1     0.882524    15B1     0.904140    15B2     0.911419
       7A2     0.948658    28A1     0.949074    29A1     1.011935
      16B1     1.032894    16B2     1.034177    30A1     1.053206
       8A2     1.053618    17B1     1.067646    17B2     1.067646
      31A1     1.075837    18B1     1.109005    18B2     1.109024
      32A1     1.116643    19B1     1.122733    19B2     1.126544
       9A2     1.162809    33A1     1.162837    34A1     1.233184
      20B1     1.263426    20B2     1.263430    21B1     1.430231
      21B2     1.434721    35A1     1.484906    10A2     1.552218
      36A1     1.552610    22B1     1.901974    22B2     1.905899
      37A1     1.981849    38A1     2.040075    11A2     2.040075
      23B1     2.084775    23B2     2.084804    39A1     2.100372
      24B1     2.108833    24B2     2.108833    12A2     2.132324
      40A1     2.132326    13A2     2.192297    41A1     2.192321
      25B1     2.196713    25B2     2.210624    26B1     2.282710
      26B2     2.282739    42A1     2.333757    43A1     2.432158
      14A2     2.433033    44A1     2.469906    27B1     2.533194
      27B2     2.534184    45A1     2.548278    15A2     2.551777
      46A1     2.555452    16A2     2.557060    28B1     2.565703
      47A1     2.568630    28B2     2.576711    29B1     2.581435
      29B2     2.583648    30B1     2.640440    30B2     2.650599
      17A2     2.654952    48A1     2.654994    49A1     2.691042
      31B1     2.888758    31B2     2.890323    32B1     2.890944
      32B2     2.894800    50A1     2.999709    18A2     3.000377
      51A1     3.011033    33B1     3.137156    33B2     3.137159
      34B1     3.259968    34B2     3.263979    52A1     3.274229
      19A2     3.275031    53A1     3.285259    54A1     3.349927
      35B1     3.431735    35B2     3.435815    55A1     3.890861
      36B1     3.923839    36B2     3.931266    20A2     4.019613
      56A1     4.019684    57A1     4.168419    37B1     4.367827
      37B2     4.385313    58A1     4.567817    38B1     4.601550
      38B2     4.601569    21A2     4.645271    59A1     4.645413
      22A2     4.661678    60A1     4.663286    23A2     4.780052
      61A1     4.780053    39B1     4.781661    39B2     4.781661
      24A2     4.838497    62A1     4.838497    40B1     5.001410
      40B2     5.001419    41B1     5.009656    41B2     5.009665
      63A1     5.034967    25A2     5.034968    42B1     5.074768
      42B2     5.089885    64A1     5.210687    26A2     5.253595
      65A1     5.257157    43B1     5.339468    43B2     5.361403
      44B1     5.434559    44B2     5.434584    66A1     5.456411
      67A1     5.557793    27A2     5.558018    45B1     5.570852
      45B2     5.570852    46B1     5.616709    46B2     5.616713
      68A1     5.732076    47B1     5.745644    47B2     5.766750
      28A2     5.800686    69A1     5.800966    70A1     6.002032
      29A2     6.095807    71A1     6.095807    48B1     6.155465
      48B2     6.171127    72A1     6.373687    30A2     6.374822
      73A1     6.437374    49B1     6.585199    49B2     6.597792
      31A2     6.603009    74A1     6.603009    50B1     6.773165
      50B2     6.773170    75A1     6.803638    32A2     6.804070
      76A1     6.837741    51B1     6.940942    51B2     6.947489
      52B1     6.947531    52B2     6.953379    77A1     7.066739
      78A1     7.216254    33A2     7.216263    53B1     7.254219
      53B2     7.260610    54B1     7.378763    54B2     7.378764
      79A1     7.463865    80A1     7.920206    34A2     7.920216
      81A1     7.945070    55B1     8.228427    55B2     8.239726
      35A2     8.644808    82A1     8.644921    56B1     8.675157
      56B2     8.681367    57B1     8.777910    57B2     8.791249
      83A1     8.856052    84A1     9.474858    36A2     9.474858
      58B1     9.501623    58B2     9.501630    85A1     9.568196
      59B1     9.787798    59B2     9.803857    86A1     9.876850
      37A2     9.879718    87A1     9.903730    60B1    10.346756
      60B2    10.363233    88A1    10.417156    61B1    10.559843
      61B2    10.559851    38A2    10.576815    89A1    10.576816
      62B1    10.577606    62B2    10.577623    39A2    10.599765
      90A1    10.600405    40A2    10.644582    91A1    10.644597
      92A1    10.824666    41A2    10.824668    63B1    10.828814
      63B2    10.828814    93A1    10.844827    64B1    10.987126
      64B2    10.987171    65B1    11.221262    65B2    11.248172
      42A2    11.331489    94A1    11.331539    95A1    11.764821
      43A2    11.764821    66B1    11.774074    66B2    11.774074
      96A1    11.842306    67B1    11.913573    67B2    11.933919
      68B1    11.959134    68B2    11.960011    44A2    11.965021
      97A1    11.965021    98A1    12.068995    45A2    12.069195
      99A1    12.143515    69B1    12.474465    69B2    12.494945
      70B1    12.704428    70B2    12.704437   100A1    12.794433
     101A1    12.983364    46A2    12.983459    71B1    13.477246
      71B2    13.492445    72B1    13.685696    72B2    13.685696
      47A2    13.793634   102A1    13.793666   103A1    13.795588
      48A2    13.873989   104A1    13.873989   105A1    14.344794
      73B1    14.391551    73B2    14.391551    49A2    14.702229
     106A1    14.702232    74B1    14.722933    74B2    14.734746
      75B1    14.817668    75B2    14.829560   107A1    15.067289
      50A2    16.127173   108A1    16.127173    76B1    16.319802
      76B2    16.319802    77B1    16.506588    77B2    16.506588
     109A1    16.540807   110A1    16.841348    51A2    16.841361
      78B1    17.147742    78B2    17.155516    52A2    17.251531
     111A1    17.251552   112A1    17.503702    79B1    17.960819
      79B2    17.968225    53A2    18.302953   113A1    18.302960
     114A1    18.845314    80B1    19.910872    80B2    19.916812
     115A1    20.700101   116A1    26.489451    81B1    28.254498
      81B2    28.257619    82B1    28.958802    82B2    28.958802
     117A1    28.971361    54A2    28.971361   118A1    29.037751
      55A2    29.037751    83B1    29.301498    83B2    29.301498
     119A1    29.679319    56A2    29.679546    84B1    29.732889
      84B2    29.740367   120A1    29.764260   121A1    29.896577
      85B1    34.642092    85B2    34.642092   122A1    34.709065
      57A2    34.709065    86B1    34.934907    86B2    34.934911
      87B1    35.056764    87B2    35.063449   123A1    35.081439
      58A2    35.081740   124A1    35.177891    88B1    35.311281
      88B2    35.312109   125A1    38.369604    59A2    38.700543
     126A1    38.700588    89B1    38.931521    89B2    38.931521
      90B1    39.232767    90B2    39.238176   127A1    39.359485
      60A2    39.359496   128A1    39.774503    91B1    39.865840
      91B2    39.872599    61A2    39.920801   129A1    39.920801
      92B1    40.023376    92B2    40.023376   130A1    40.403479
      62A2    40.403487   131A1    40.492233    93B1    40.698463
      93B2    40.706452   132A1    41.769489   133A1    43.865044
      63A2    43.865045    94B1    44.941927    94B2    44.947446
     134A1    45.554677   135A1   130.016983   136A1   286.830597

    Final Occupation by Irrep:
             A1    A2    B1    B2
    DOCC [     7,    0,    2,    3 ]
    SOCC [     0,    0,    1,    0 ]

  @UHF Final Energy:  -558.49076791527841

   => Energetics <=

    Nuclear Repulsion Energy =             53.1323247980055768
    One-Electron Energy =                -869.3526338871258758
    Two-Electron Energy =                 257.7295411738418807
    Total Energy =                       -558.4907679152784112

  UHF NO Occupations:
  HONO-2 :    2 B1 1.9987239
  HONO-1 :    7 A1 1.9942771
  HONO-0 :    3 B1 1.0000000
  LUNO+0 :    8 A1 0.0057229
  LUNO+1 :    4 B1 0.0012761
  LUNO+2 :    4 B2 0.0003378
  LUNO+3 :    9 A1 0.0001026

Computation Completed

Properties will be evaluated at   0.000000,   0.000000,   0.000000 [a0]

Properties computed using the SCF density matrix

  Nuclear Dipole Moment: [e a0]
     X:     0.0000      Y:     0.0000      Z:     0.4404

  Electronic Dipole Moment: [e a0]
     X:     0.0000      Y:     0.0000      Z:     0.4396

  Dipole Moment: [e a0]
     X:     0.0000      Y:     0.0000      Z:     0.8800     Total:     0.8800

  Dipole Moment: [D]
     X:     0.0000      Y:     0.0000      Z:     2.2368     Total:     2.2368

*** tstop() called on n412-047.vsc4.prov at Fri Jan 22 08:37:08 2021
Module time:
	user time   =    1140.00 seconds =      19.00 minutes
	system time =      92.59 seconds =       1.54 minutes
	total time  =       1348 seconds =      22.47 minutes
Total time:
	user time   =    1140.00 seconds =      19.00 minutes
	system time =      92.59 seconds =       1.54 minutes
	total time  =       1348 seconds =      22.47 minutes

*** tstart() called on n412-047.vsc4.prov
*** at Fri Jan 22 08:37:08 2021

	Wfn Parameters:
	--------------------
	Wavefunction         = CCSD_T
	Number of irreps     = 4
	Number of MOs        = 387
	Number of active MOs = 381
	AO-Basis             = NONE
	Semicanonical        = false
	Reference            = UHF
	Print Level          = 1

	IRREP	# MOs	# FZDC	# DOCC	# SOCC	# VIRT	# FZVR
	-----	-----	------	------	------	------	------
	 A1	   136	    4	    3	    0	    129	    0
	 A2	   63	    0	    0	    0	    63	    0
	 B1	   94	    1	    1	    1	    91	    0
	 B2	   94	    1	    2	    0	    91	    0
	Transforming integrals...
	IWL integrals will be deleted.
	(OO|OO)...
	Presorting SO-basis two-electron integrals.
	Sorting File: SO Ints (nn|nn) nbuckets = 1
	Constructing frozen core operators
	Starting AA/AB first half-transformation.
	Sorting AA/AB half-transformed integrals.
	Starting BB first half-transformation.
	Sorting BB half-transformed integrals.
	First half integral transformation complete.
	Starting AA second half-transformation.
	Starting AB second half-transformation.
	Starting BB second half-transformation.
	Two-electron integral transformation complete.
	(OO|OV)...
	Starting AA second half-transformation.
	Starting AB second half-transformation.
	Starting BB second half-transformation.
	Two-electron integral transformation complete.
	(OO|VV)...
	Starting AA second half-transformation.
	Starting AB second half-transformation.
	Starting BB second half-transformation.
	Two-electron integral transformation complete.
	(OV|OO)...
	Starting AA/AB first half-transformation.
	Sorting AA/AB half-transformed integrals.
	Starting BB first half-transformation.
	Sorting BB half-transformed integrals.
	First half integral transformation complete.
	Starting AA second half-transformation.
	Starting AB second half-transformation.
	Starting BB second half-transformation.
	Two-electron integral transformation complete.
	(OV|OV)...
	Starting AA second half-transformation.
	Starting AB second half-transformation.
	Starting BB second half-transformation.
	Two-electron integral transformation complete.
	(OV|VV)...
	Starting AA second half-transformation.
	Starting AB second half-transformation.
	Starting BB second half-transformation.
	Two-electron integral transformation complete.
	(VV|OO)...
	Starting AA/AB first half-transformation.
	Sorting AA/AB half-transformed integrals.
	Starting BB first half-transformation.
	Sorting BB half-transformed integrals.
	First half integral transformation complete.

      * MP2 total energy                      = -558.969318039579889
      * CCSD total energy                     = -558.980493556717079
      * CCSD(T) total energy                     = -559.001584358161267
*** Psi4 exiting successfully. Buy a developer a beer!
