                               Psi4 1.4a3.dev88

  ==> Input File <==

--------------------------------------------------------------------------
# Any line starting with the # character is a comment line
memory 250000 mb
molecule molecule{
0 1
C          0.4159467511        0.0922139500        0.0000000000
O         -0.2086001535        1.1229963918        0.0000000000
O         -0.1249796048       -1.1409420749        0.0000000000
H         -1.0881867206       -1.0190307559        0.0000000000
H          1.5056910277        0.0154612889        0.0000000000
}

set {
  reference rhf
  basis aug-cc-pV(5+d)Z
  scf_type OUT_OF_CORE
  freeze_core true
}

energy('ccsd(t)')
--------------------------------------------------------------------------

    Molecular point group: cs

    Geometry (in Angstrom), charge = 0, multiplicity = 1:

       Center              X                  Y                   Z               Mass
    ------------   -----------------  -----------------  -----------------  -----------------
         C            0.414282763390     0.096385077055     0.000000000000    12.000000000000
         O           -0.210264141210     1.127167518855     0.000000000000    15.994914619570
         O           -0.126643592510    -1.136770947845     0.000000000000    15.994914619570
         H           -1.089850708310    -1.014859628845     0.000000000000     1.007825032230
         H            1.504027039990     0.019632415955     0.000000000000     1.007825032230

  Charge       = 0
  Multiplicity = 1
  Basis Set: AUG-CC-PV(5+D)Z
    Blend: AUG-CC-PV(5+D)Z

    Orbital Energies [Eh]
    ---------------------

    Doubly Occupied:

       1Ap   -20.626777     2Ap   -20.565511     3Ap   -11.397299
       4Ap    -1.476068     5Ap    -1.376293     6Ap    -0.897515
       7Ap    -0.725294     8Ap    -0.714317     1App   -0.638209
       9Ap    -0.606899     2App   -0.497932    10Ap    -0.475729

  @RHF Final Energy:  -188.85885738094052

   => Energetics <=

    Nuclear Repulsion Energy =             70.0617429257971622
    One-Electron Energy =                -397.8455158429636640
    Two-Electron Energy =                 138.9249155362259955
    Total Energy =                       -188.8588573809405204

  Dipole Moment: [D]
     X:     0.4052      Y:    -1.6862      Z:     0.0000     Total:     1.7342

      * MP2 total energy                      = -189.559984139145229
      * CCSD total energy                     = -189.552652765899211
      * CCSD(T) total energy                  = -189.583426860109114
*** Psi4 exiting successfully. Buy a developer a beer!
