                               Psi4 1.4a3.dev88

  ==> Input File <==

--------------------------------------------------------------------------
# Any line starting with the # character is a comment line
memory 250000 mb
molecule molecule{
0 1
C          0.0000000000        0.0000000000        0.0997864858
H          0.0000000000       -0.8589352290       -0.5945470372
H          0.0000000000        0.8589352290       -0.5945470372
}

set {
  reference rhf
  basis aug-cc-pV(d+d)Z
  scf_type OUT_OF_CORE
  freeze_core true
}

energy('ccsd(t)')
--------------------------------------------------------------------------

    Molecular point group: c2v

    Geometry (in Angstrom), charge = 0, multiplicity = 1:

       Center              X                  Y                   Z               Mass
    ------------   -----------------  -----------------  -----------------  -----------------
         C           -0.000000000000     0.000000000000     0.099855048032    12.000000000000
         H            0.000000000000    -0.858935229000    -0.594478474968     1.007825032230
         H           -0.000000000000     0.858935229000    -0.594478474968     1.007825032230

  Charge       = 0
  Multiplicity = 1
  Basis Set: AUG-CC-PV(D+D)Z
    Blend: AUG-CC-PV(D+D)Z

    Orbital Energies [Eh]
    ---------------------

    Doubly Occupied:

       1A1   -11.301027     2A1    -0.895514     1B2    -0.565736
       3A1    -0.395510

  @RHF Final Energy:   -38.88437944958299

   => Energetics <=

    Nuclear Repulsion Energy =              6.0574862173778179
    One-Electron Energy =                 -63.5681582153313940
    Two-Electron Energy =                  18.6262925483705892
    Total Energy =                        -38.8843794495829940

  Dipole Moment: [D]
     X:     0.0000      Y:     0.0000      Z:    -1.9082     Total:     1.9082

      * MP2 total energy                      =  -38.999704257962378
      * CCSD total energy                     =  -39.027507341840170
      * CCSD(T) total energy                  =  -39.031013306649804
*** Psi4 exiting successfully. Buy a developer a beer!
