                               Psi4 1.4a3.dev88

  ==> Input File <==

--------------------------------------------------------------------------
# Any line starting with the # character is a comment line
memory 250000 mb
molecule molecule{
1 4
O          0.0000000000        0.0000000000        0.0000000000
}

set {
  reference uhf
  basis aug-cc-pV(t+d)Z
  scf_type OUT_OF_CORE
  freeze_core true
}

energy('ccsd(t)')
--------------------------------------------------------------------------

    Molecular point group: d2h
    Geometry (in Angstrom), charge = 1, multiplicity = 4:

       Center              X                  Y                   Z               Mass
    ------------   -----------------  -----------------  -----------------  -----------------
         O            0.000000000000     0.000000000000     0.000000000000    15.994914619570

  Charge       = 1
  Multiplicity = 4
  Basis Set: AUG-CC-PV(T+D)Z
    Blend: AUG-CC-PV(T+D)Z

    Orbital Energies [Eh]
    ---------------------

    Alpha Occupied:

       1Ag   -21.412043     2Ag    -2.072294     1B2u   -1.330160
       1B1u   -1.330160     1B3u   -1.330160

    Alpha Virtual:

       3Ag    -0.127738     2B2u   -0.077557     2B3u   -0.077557
       2B1u   -0.077557     1B2g    0.284181     4Ag     0.284181
       1B1g    0.284181     1B3g    0.284181     5Ag     0.284181
       3B1u    0.467347     3B2u    0.467347     3B3u    0.467347
       6Ag     0.801992     7Ag     1.560252     8Ag     1.560252
       2B3g    1.560252     2B1g    1.560252     2B2g    1.560252
       4B2u    1.582111     4B3u    1.582111     5B3u    1.582111
       1Au     1.582111     5B2u    1.582111     4B1u    1.582111
       5B1u    1.582111     6B2u    3.470883     6B1u    3.470883
       6B3u    3.470883     7B2u    5.790127     7B3u    5.790127
       8B2u    5.790127     8B3u    5.790127     7B1u    5.790127
       2Au     5.790127     8B1u    5.790127     9Ag     6.226675
       3B1g    6.226675     3B2g    6.226675     3B3g    6.226675
      10Ag     6.226675    11Ag     7.656474

    Beta Occupied:

       1Ag   -21.278300     2Ag    -1.532038

    Beta Virtual:

       1B1u   -0.382788     1B2u   -0.382788     1B3u   -0.382788
       3Ag    -0.107731     2B1u   -0.046881     2B2u   -0.046881
       2B3u   -0.046881     4Ag     0.314609     1B2g    0.314609
       5Ag     0.314609     1B3g    0.314609     1B1g    0.314609
       3B1u    0.600915     3B2u    0.600915     3B3u    0.600915
       6Ag     0.910522     4B2u    1.613584     4B3u    1.613584
       1Au     1.613584     5B2u    1.613584     5B3u    1.613584
       4B1u    1.613584     5B1u    1.613584     7Ag     1.716215
       8Ag     1.716215     2B3g    1.716215     2B2g    1.716215
       2B1g    1.716215     6B2u    3.680204     6B1u    3.680204
       6B3u    3.680204     7B2u    5.907936     8B2u    5.907936
       7B3u    5.907936     7B1u    5.907936     2Au     5.907936
       8B3u    5.907936     8B1u    5.907936     3B1g    6.451637
       9Ag     6.451637     3B2g    6.451637     3B3g    6.451637
      10Ag     6.451637    11Ag     7.795463

    Final Occupation by Irrep:
             Ag   B1g   B2g   B3g    Au   B1u   B2u   B3u
    DOCC [     2,    0,    0,    0,    0,    0,    0,    0 ]
    SOCC [     0,    0,    0,    0,    0,    1,    1,    1 ]

  @UHF Final Energy:   -74.37075008747549

   => Energetics <=

    Nuclear Repulsion Energy =              0.0000000000000000
    One-Electron Energy =                 -98.4563469814622607
    Two-Electron Energy =                  24.0855968939867680
    Total Energy =                        -74.3707500874754999

  UHF NO Occupations:
  HONO-2 :    1B2u 1.0000000
  HONO-1 :    1B1u 1.0000000
  HONO-0 :    1B3u 1.0000000
  LUNO+0 :    3 Ag 0.0027492
  LUNO+1 :    4 Ag 0.0000041
  LUNO+2 :    5 Ag 0.0000000
  LUNO+3 :    6 Ag 0.0000000

Computation Completed

Properties will be evaluated at   0.000000,   0.000000,   0.000000 [a0]

Properties computed using the SCF density matrix

  Nuclear Dipole Moment: [e a0]
     X:     0.0000      Y:     0.0000      Z:     0.0000

  Electronic Dipole Moment: [e a0]
     X:     0.0000      Y:     0.0000      Z:     0.0000

  Dipole Moment: [e a0]
     X:     0.0000      Y:     0.0000      Z:     0.0000     Total:     0.0000

  Dipole Moment: [D]
     X:     0.0000      Y:     0.0000      Z:     0.0000     Total:     0.0000

*** tstop() called on n412-040.vsc4.prov at Tue Jan 26 18:02:30 2021
Module time:
	user time   =       6.83 seconds =       0.11 minutes
	system time =       0.25 seconds =       0.00 minutes
	total time  =          1 seconds =       0.02 minutes
Total time:
	user time   =       6.83 seconds =       0.11 minutes
	system time =       0.25 seconds =       0.00 minutes
	total time  =          1 seconds =       0.02 minutes

*** tstart() called on n412-040.vsc4.prov
*** at Tue Jan 26 18:02:30 2021

	Wfn Parameters:
	--------------------
	Wavefunction         = CCSD_T
	Number of irreps     = 8
	Number of MOs        = 46
	Number of active MOs = 45
	AO-Basis             = NONE
	Semicanonical        = false
	Reference            = UHF
	Print Level          = 1

	IRREP	# MOs	# FZDC	# DOCC	# SOCC	# VIRT	# FZVR
	-----	-----	------	------	------	------	------
	 Ag	   11	    1	    1	    0	    9	    0
	 B1g	   3	    0	    0	    0	    3	    0
	 B2g	   3	    0	    0	    0	    3	    0
	 B3g	   3	    0	    0	    0	    3	    0
	 Au	   2	    0	    0	    0	    2	    0
	 B1u	   8	    0	    0	    1	    7	    0
	 B2u	   8	    0	    0	    1	    7	    0
	 B3u	   8	    0	    0	    1	    7	    0
	Transforming integrals...
	IWL integrals will be deleted.
	(OO|OO)...
	Presorting SO-basis two-electron integrals.
	Sorting File: SO Ints (nn|nn) nbuckets = 1
	Constructing frozen core operators
	Starting AA/AB first half-transformation.
	Sorting AA/AB half-transformed integrals.
	Starting BB first half-transformation.
	Sorting BB half-transformed integrals.
	First half integral transformation complete.
	Starting AA second half-transformation.
	Starting AB second half-transformation.
	Starting BB second half-transformation.
	Two-electron integral transformation complete.
	(OO|OV)...
	Starting AA second half-transformation.
	Starting AB second half-transformation.
	Starting BB second half-transformation.
	Two-electron integral transformation complete.
	(OO|VV)...
	Starting AA second half-transformation.
	Starting AB second half-transformation.
	Starting BB second half-transformation.
	Two-electron integral transformation complete.
	(OV|OO)...
	Starting AA/AB first half-transformation.
	Sorting AA/AB half-transformed integrals.
	Starting BB first half-transformation.
	Sorting BB half-transformed integrals.
	First half integral transformation complete.
	Starting AA second half-transformation.
	Starting AB second half-transformation.
	Starting BB second half-transformation.
	Two-electron integral transformation complete.
	(OV|OV)...
	Starting AA second half-transformation.
	Starting AB second half-transformation.
	Starting BB second half-transformation.
	Two-electron integral transformation complete.
	(OV|VV)...
	Starting AA second half-transformation.
	Starting AB second half-transformation.
	Starting BB second half-transformation.
	Two-electron integral transformation complete.
	(VV|OO)...
	Starting AA/AB first half-transformation.
	Sorting AA/AB half-transformed integrals.
	Starting BB first half-transformation.
	Sorting BB half-transformed integrals.
	First half integral transformation complete.
	Starting AA second half-transformation.
	Starting AB second half-transformation.
	Starting BB second half-transformation.
	Two-electron integral transformation complete.
	(VV|OV)...
	Starting AA second half-transformation.
	Starting AB second half-transformation.
	Starting BB second half-transformation.
	Two-electron integral transformation complete.
	(VV|VV)...
	Starting AA second half-transformation.
	Starting AB second half-transformation.
	Starting BB second half-transformation.
	Two-electron integral transformation complete.
	Frozen core energy     =    -59.10548480025336

	Size of irrep 0 of <AB|CD> integrals:      0.012 (MW) /      0.095 (MB)
	Size of irrep 1 of <AB|CD> integrals:      0.010 (MW) /      0.078 (MB)
	Size of irrep 2 of <AB|CD> integrals:      0.010 (MW) /      0.078 (MB)
	Size of irrep 3 of <AB|CD> integrals:      0.010 (MW) /      0.078 (MB)
	Size of irrep 4 of <AB|CD> integrals:      0.007 (MW) /      0.052 (MB)
	Size of irrep 5 of <AB|CD> integrals:      0.012 (MW) /      0.099 (MB)
	Size of irrep 6 of <AB|CD> integrals:      0.012 (MW) /      0.099 (MB)
	Size of irrep 7 of <AB|CD> integrals:      0.012 (MW) /      0.099 (MB)
	Total:                                     0.085 (MW) /      0.678 (MB)

	Size of irrep 0 of <ab|cd> integrals:      0.017 (MW) /      0.135 (MB)
	Size of irrep 1 of <ab|cd> integrals:      0.013 (MW) /      0.108 (MB)
	Size of irrep 2 of <ab|cd> integrals:      0.013 (MW) /      0.108 (MB)
	Size of irrep 3 of <ab|cd> integrals:      0.013 (MW) /      0.108 (MB)
	Size of irrep 4 of <ab|cd> integrals:      0.008 (MW) /      0.065 (MB)
	Size of irrep 5 of <ab|cd> integrals:      0.016 (MW) /      0.127 (MB)
	Size of irrep 6 of <ab|cd> integrals:      0.016 (MW) /      0.127 (MB)
	Size of irrep 7 of <ab|cd> integrals:      0.016 (MW) /      0.127 (MB)
	Total:                                     0.113 (MW) /      0.904 (MB)

	Size of irrep 0 of <Ab|Cd> integrals:      0.078 (MW) /      0.627 (MB)
	Size of irrep 1 of <Ab|Cd> integrals:      0.046 (MW) /      0.366 (MB)
	Size of irrep 2 of <Ab|Cd> integrals:      0.046 (MW) /      0.366 (MB)
	Size of irrep 3 of <Ab|Cd> integrals:      0.046 (MW) /      0.366 (MB)
	Size of irrep 4 of <Ab|Cd> integrals:      0.029 (MW) /      0.234 (MB)
	Size of irrep 5 of <Ab|Cd> integrals:      0.056 (MW) /      0.449 (MB)
	Size of irrep 6 of <Ab|Cd> integrals:      0.056 (MW) /      0.449 (MB)
	Size of irrep 7 of <Ab|Cd> integrals:      0.056 (MW) /      0.449 (MB)
	Total:                                     0.414 (MW) /      3.308 (MB)

	Size of irrep 0 of <IA|BC> integrals:      0.008 (MW) /      0.062 (MB)
	Size of irrep 1 of <IA|BC> integrals:      0.004 (MW) /      0.030 (MB)
	Size of irrep 2 of <IA|BC> integrals:      0.004 (MW) /      0.030 (MB)
	Size of irrep 3 of <IA|BC> integrals:      0.004 (MW) /      0.030 (MB)
	Size of irrep 4 of <IA|BC> integrals:      0.002 (MW) /      0.014 (MB)
	Size of irrep 5 of <IA|BC> integrals:      0.005 (MW) /      0.039 (MB)
	Size of irrep 6 of <IA|BC> integrals:      0.005 (MW) /      0.039 (MB)
	Size of irrep 7 of <IA|BC> integrals:      0.005 (MW) /      0.039 (MB)
	Total:                                     0.035 (MW) /      0.284 (MB)

	Size of irrep 0 of <ia|bc> integrals:      0.003 (MW) /      0.022 (MB)
	Size of irrep 1 of <ia|bc> integrals:      0.001 (MW) /      0.006 (MB)
	Size of irrep 2 of <ia|bc> integrals:      0.001 (MW) /      0.006 (MB)
	Size of irrep 3 of <ia|bc> integrals:      0.001 (MW) /      0.006 (MB)
	Size of irrep 4 of <ia|bc> integrals:      0.000 (MW) /      0.003 (MB)
	Size of irrep 5 of <ia|bc> integrals:      0.002 (MW) /      0.016 (MB)
	Size of irrep 6 of <ia|bc> integrals:      0.002 (MW) /      0.016 (MB)
	Size of irrep 7 of <ia|bc> integrals:      0.002 (MW) /      0.016 (MB)
	Total:                                     0.011 (MW) /      0.090 (MB)

	Size of irrep 0 of <Ia|Bc> integrals:      0.009 (MW) /      0.074 (MB)
	Size of irrep 1 of <Ia|Bc> integrals:      0.004 (MW) /      0.036 (MB)
	Size of irrep 2 of <Ia|Bc> integrals:      0.004 (MW) /      0.036 (MB)
	Size of irrep 3 of <Ia|Bc> integrals:      0.004 (MW) /      0.036 (MB)
	Size of irrep 4 of <Ia|Bc> integrals:      0.002 (MW) /      0.015 (MB)
	Size of irrep 5 of <Ia|Bc> integrals:      0.005 (MW) /      0.044 (MB)
	Size of irrep 6 of <Ia|Bc> integrals:      0.005 (MW) /      0.044 (MB)
	Size of irrep 7 of <Ia|Bc> integrals:      0.005 (MW) /      0.044 (MB)
	Total:                                     0.041 (MW) /      0.328 (MB)

	Size of irrep 0 of <iA|bC> integrals:      0.003 (MW) /      0.020 (MB)
	Size of irrep 1 of <iA|bC> integrals:      0.001 (MW) /      0.005 (MB)
	Size of irrep 2 of <iA|bC> integrals:      0.001 (MW) /      0.005 (MB)
	Size of irrep 3 of <iA|bC> integrals:      0.001 (MW) /      0.005 (MB)
	Size of irrep 4 of <iA|bC> integrals:      0.000 (MW) /      0.003 (MB)
	Size of irrep 5 of <iA|bC> integrals:      0.002 (MW) /      0.013 (MB)
	Size of irrep 6 of <iA|bC> integrals:      0.002 (MW) /      0.013 (MB)
	Size of irrep 7 of <iA|bC> integrals:      0.002 (MW) /      0.013 (MB)
	Total:                                     0.010 (MW) /      0.078 (MB)

	Size of irrep 0 of tIjAb amplitudes:       0.000 (MW) /      0.002 (MB)
	Size of irrep 1 of tIjAb amplitudes:       0.000 (MW) /      0.000 (MB)
	Size of irrep 2 of tIjAb amplitudes:       0.000 (MW) /      0.000 (MB)
	Size of irrep 3 of tIjAb amplitudes:       0.000 (MW) /      0.000 (MB)
	Size of irrep 4 of tIjAb amplitudes:       0.000 (MW) /      0.000 (MB)
	Size of irrep 5 of tIjAb amplitudes:       0.000 (MW) /      0.002 (MB)
	Size of irrep 6 of tIjAb amplitudes:       0.000 (MW) /      0.002 (MB)
	Size of irrep 7 of tIjAb amplitudes:       0.000 (MW) /      0.002 (MB)
	Total:                                     0.001 (MW) /      0.008 (MB)

	Nuclear Rep. energy          =      0.00000000000000
	SCF energy                   =    -74.37075008747549
	One-electron energy          =    -22.93571991154210
	Two-electron (AA) energy     =      4.36431865171974
	Two-electron (BB) energy     =      0.00000000000000
	Two-electron (AB) energy     =      3.30613597260018
	Two-electron energy          =      7.67045462431992
	Reference energy             =    -74.37075008747554

*** tstop() called on n412-040.vsc4.prov at Tue Jan 26 18:02:31 2021
Module time:
	user time   =       0.11 seconds =       0.00 minutes
	system time =       0.18 seconds =       0.00 minutes
	total time  =          1 seconds =       0.02 minutes
Total time:
	user time   =       6.94 seconds =       0.12 minutes
	system time =       0.43 seconds =       0.01 minutes
	total time  =          2 seconds =       0.03 minutes
            **************************
            *                        *
            *        CCENERGY        *
            *                        *
            **************************

    Nuclear Rep. energy (wfn)     =    0.000000000000000
    SCF energy          (wfn)     =  -74.370750087475486
    Reference energy    (file100) =  -74.370750087475543

    Input parameters:
    -----------------
    Wave function   =     CCSD_T
    Reference wfn   =     UHF
    Brueckner       =     No
    Memory (Mbytes) =     250000.0
    Maxiter         =     50
    R_Convergence   =     1.0e-07
    E_Convergence   =     1.0e-06
    Restart         =     Yes
    DIIS            =     Yes
    AO Basis        =     NONE
    ABCD            =     NEW
    Cache Level     =     2
    Cache Type      =     LRU
    Print Level     =     1
    Num. of threads =     48
    # Amps to Print =     10
    Print MP2 Amps? =     No
    Analyze T2 Amps =     No
    Print Pair Ener =     No
    Local CC        =     No
    SCS-MP2         =     False
    SCSN-MP2        =     False
    SCS-CCSD        =     False

MP2 correlation energy -0.0984481297724005
                Solving CC Amplitude Equations
                ------------------------------
  Iter             Energy              RMS        T1Diag      D1Diag    New D1Diag    D2Diag
  ----     ---------------------    ---------   ----------  ----------  ----------   --------
     0        -0.098448129772400    0.000e+00    0.000000    0.000000    0.000000    0.000000
     1        -0.110237304403783    2.403e-02    0.003087    0.000000    0.000000    0.000000
     2        -0.113293834804810    8.062e-03    0.005219    0.000000    0.000000    0.000000
     3        -0.113382119508253    1.691e-03    0.005819    0.000000    0.000000    0.000000
     4        -0.113377561744669    3.697e-04    0.005866    0.000000    0.000000    0.000000
     5        -0.113379961444390    7.266e-05    0.005859    0.000000    0.000000    0.000000
     6        -0.113380632374425    1.221e-05    0.005857    0.000000    0.000000    0.000000
     7        -0.113380602288739    1.839e-06    0.005857    0.000000    0.000000    0.000000
     8        -0.113380585738997    2.689e-07    0.005857    0.000000    0.000000    0.000000
     9        -0.113380588724729    4.617e-08    0.005857    0.000000    0.000000    0.000000

    Iterations converged.

    Largest TIA Amplitudes:
              0   0         0.0045352296
              0   3        -0.0034938131
              1  21        -0.0031432386
              2  28        -0.0031432386
              3  35        -0.0031432386
              1  20        -0.0029322744
              2  27        -0.0029322744
              3  34        -0.0029322744
              1  24         0.0008523100
              2  31         0.0008523100

    Largest Tia Amplitudes:
              0   3         0.0069053035
              0   0        -0.0054514719
              0   8        -0.0018658141

    Largest TIJAB Amplitudes:
      3   2  35  28        -0.0155026696
      3   1  35  21        -0.0155026696
      2   1  28  21        -0.0155026696
      3   2  10   5         0.0144818315
      2   1  16   4        -0.0126717511
      3   1  13   4        -0.0124115169
      3   2  38  31        -0.0106782813
      3   1  38  24        -0.0106782813
      2   1  31  24        -0.0106782813
      1   0  21   3        -0.0102233115

    Largest TIjAb Amplitudes:
      1   0   4  20        -0.0307260788
      3   0   5  36        -0.0268856339
      1   0  13  36        -0.0266138607
      1   0  16  28        -0.0266138607
      2   0  10  36        -0.0266138607
      2   0  16  20        -0.0266138607
      3   0  10  28        -0.0266138607
      3   0  13  20        -0.0266138607
      2   0   5  28         0.0263334956
      1   0   2  20        -0.0206494599

    SCF energy       (wfn)                    =  -74.370750087475486
    Reference energy (file100)                =  -74.370750087475543

    Opposite-spin MP2 correlation energy      =   -0.069179317757117
    Same-spin MP2 correlation energy          =   -0.029268812015283
    Singles MP2 correlation energy            =   -0.000000000000000
    MP2 correlation energy                    =   -0.098448129772400
      * MP2 total energy                      =  -74.469198217247950

    Opposite-spin CCSD correlation energy     =   -0.081904366630365
    Same-spin CCSD correlation energy         =   -0.031476222094364
    Singles CCSD correlation energy           =    0.000000000000000
    CCSD correlation energy                   =   -0.113380588724729
      * CCSD total energy                     =  -74.484130676200266
      * CCSD(T) total energy                     =  -74.485801913934722
*** Psi4 exiting successfully. Buy a developer a beer!
