                               Psi4 1.2a1.dev939

  ==> Input File <==

--------------------------------------------------------------------------
# Any line starting with the # character is a comment line

memory 32000 mb

molecule molecule {
0 1
C          0.0000000000        0.0000000000       -0.6203930707
O          0.0000000000        0.0000000000        0.5925090134
H          0.9360096420        0.0000000000       -1.1985794735
H         -0.9360096420        0.0000000000       -1.1985794735
}

set {
  reference rhf

  basis aug-cc-pv(5+d)z
  scf_type OUT_OF_CORE
  freeze_core true
}

energy('ccsd')
--------------------------------------------------------------------------

    Molecular point group: c2v

    Geometry (in Angstrom), charge = 0, multiplicity = 1:

       Center              X                  Y                   Z               Mass
    ------------   -----------------  -----------------  -----------------  -----------------
           C          0.000000000000    -0.000000000000    -0.607614152195    12.000000000000
           O          0.000000000000    -0.000000000000     0.605287931905    15.994914619560
           H          0.936009642000     0.000000000000    -1.185800554995     1.007825032070
           H         -0.936009642000    -0.000000000000    -1.185800554995     1.007825032070

  Charge       = 0
  Multiplicity = 1
  Basis Set: AUG-CC-PV(5+D)Z
    Blend: AUG-CC-PV(5+D)Z

    Orbital Energies (a.u.)
    -----------------------

    Doubly Occupied:

       1A1   -20.575787     2A1   -11.342104     3A1    -1.401121
       4A1    -0.872690     1B1    -0.694521     5A1    -0.650659
       1B2    -0.534322     2B1    -0.445084

  @RHF Final Energy:  -113.92223918707904

   => Energetics <=

    Nuclear Repulsion Energy =             31.1860568608467403
    One-Electron Energy =                -217.1840152624648965
    Two-Electron Energy =                  72.0757192145391059
    Total Energy =                       -113.9222391870790432
      * MP2 total energy                      = -114.360286004047182
      * CCSD total energy                     = -114.362298894664832
*** Psi4 exiting successfully. Buy a developer a beer!
