                               Psi4 1.4a3.dev88

  ==> Input File <==

--------------------------------------------------------------------------
# Any line starting with the # character is a comment line
memory 250000 mb
molecule molecule{
0 1
Si         0.0000000000        0.0000000000       -0.0000000000
H          1.2043721963        0.0000000000        0.8516197471
H         -1.2043721963        0.0000000000        0.8516197471
H          0.0000000000       -1.2043721963       -0.8516197471
H          0.0000000000        1.2043721963       -0.8516197471
}

set {
  reference rhf
  basis aug-cc-pV(t+d)Z
  scf_type OUT_OF_CORE
  freeze_core true
}

energy('ccsd(t)')
--------------------------------------------------------------------------

    Molecular point group: c2v

    Geometry (in Angstrom), charge = 0, multiplicity = 1:

       Center              X                  Y                   Z               Mass
    ------------   -----------------  -----------------  -----------------  -----------------
         SI          -0.000000000000    -0.000000000000     0.000000000000    27.976926534650
         H            1.204372196300     0.000000000000     0.851619747100     1.007825032230
         H           -1.204372196300    -0.000000000000     0.851619747100     1.007825032230
         H            0.000000000000    -1.204372196300    -0.851619747100     1.007825032230
         H           -0.000000000000     1.204372196300    -0.851619747100     1.007825032230

  Charge       = 0
  Multiplicity = 1
  Basis Set: AUG-CC-PV(T+D)Z
    Blend: AUG-CC-PV(T+D)Z

    Orbital Energies [Eh]
    ---------------------

    Doubly Occupied:

       1A1   -68.771289     2A1    -6.121025     3A1    -4.227064
       1B1    -4.227064     1B2    -4.227064     4A1    -0.731091
       5A1    -0.487174     2B1    -0.487174     2B2    -0.487174

  @RHF Final Energy:  -291.26384416982233

   => Energetics <=

    Nuclear Repulsion Energy =             21.4082732656307897
    One-Electron Energy =                -445.8119959278650413
    Two-Electron Energy =                 133.1398784924118956
    Total Energy =                       -291.2638441698223914

  Dipole Moment: [D]
     X:     0.0000      Y:     0.0000      Z:     0.0000     Total:     0.0000

      * MP2 total energy                      = -291.409420276748733
      * CCSD total energy                     = -291.438753068166363
      * CCSD(T) total energy                  = -291.442752760019857
*** Psi4 exiting successfully. Buy a developer a beer!
