                               Psi4 1.4a3.dev88

  ==> Input File <==

--------------------------------------------------------------------------
# Any line starting with the # character is a comment line
memory 250000 mb
molecule molecule{
0 1
Si         0.0000000000        0.0000000000       -0.0000000000
H          1.2043721963        0.0000000000        0.8516197471
H         -1.2043721963        0.0000000000        0.8516197471
H          0.0000000000       -1.2043721963       -0.8516197471
H          0.0000000000        1.2043721963       -0.8516197471
}

set {
  reference rhf
  basis aug-cc-pV(d+d)Z
  scf_type OUT_OF_CORE
  freeze_core true
}

energy('ccsd(t)')
--------------------------------------------------------------------------

    Molecular point group: c2v

    Geometry (in Angstrom), charge = 0, multiplicity = 1:

       Center              X                  Y                   Z               Mass
    ------------   -----------------  -----------------  -----------------  -----------------
         SI          -0.000000000000    -0.000000000000     0.000000000000    27.976926534650
         H            1.204372196300     0.000000000000     0.851619747100     1.007825032230
         H           -1.204372196300    -0.000000000000     0.851619747100     1.007825032230
         H            0.000000000000    -1.204372196300    -0.851619747100     1.007825032230
         H           -0.000000000000     1.204372196300    -0.851619747100     1.007825032230

  Charge       = 0
  Multiplicity = 1
  Basis Set: AUG-CC-PV(D+D)Z
    Blend: AUG-CC-PV(D+D)Z

    Orbital Energies [Eh]
    ---------------------

    Doubly Occupied:

       1A1   -68.779451     2A1    -6.127447     1B1    -4.233552
       1B2    -4.233552     3A1    -4.233552     4A1    -0.732466
       5A1    -0.486290     2B2    -0.486290     2B1    -0.486290

  @RHF Final Energy:  -291.25028111410001

   => Energetics <=

    Nuclear Repulsion Energy =             21.4082732656307897
    One-Electron Energy =                -445.7193270557969527
    Two-Electron Energy =                 133.0607726760661649
    Total Energy =                       -291.2502811141000052

  Dipole Moment: [D]
     X:     0.0000      Y:     0.0000      Z:    -0.0000     Total:     0.0000

      * MP2 total energy                      = -291.371748059078698
      * CCSD total energy                     = -291.403623430077744
      * CCSD(T) total energy                  = -291.406501777475967
*** Psi4 exiting successfully. Buy a developer a beer!
