                               Psi4 1.4a3.dev88

  ==> Input File <==

--------------------------------------------------------------------------
# Any line starting with the # character is a comment line
memory 250000 mb
molecule molecule{
0 2
S          0.0000000000        0.0000000000       -0.0407414360
H          0.0000000000        0.0000000000        1.2958811416
}

set {
  reference uhf
  basis aug-cc-pV(t+d)Z
  scf_type OUT_OF_CORE
  freeze_core true
}

energy('ccsd(t)')
--------------------------------------------------------------------------

    Molecular point group: c2v

    Geometry (in Angstrom), charge = 0, multiplicity = 2:

       Center              X                  Y                   Z               Mass
    ------------   -----------------  -----------------  -----------------  -----------------
         S            0.000000000000     0.000000000000    -0.040845540687    31.972071174400
         H            0.000000000000     0.000000000000     1.295777036913     1.007825032230

  Charge       = 0
  Multiplicity = 2
  Basis Set: AUG-CC-PV(T+D)Z
    Blend: AUG-CC-PV(T+D)Z

    Orbital Energies [Eh]
    ---------------------

    Alpha Occupied:

       1A1   -91.990358     2A1    -8.991332     1B2    -6.686777
       3A1    -6.668613     1B1    -6.666818     4A1    -0.989231
       5A1    -0.553586     2B2    -0.471662     2B1    -0.401941

    Alpha Virtual:

       6A1     0.030255     7A1     0.089854     3B2     0.092105
       3B1     0.100089     8A1     0.142961     9A1     0.169996
       4B2     0.223336     4B1     0.236817     1A2     0.259283
      10A1     0.260370    11A1     0.317792     5B2     0.353879
       5B1     0.365093    12A1     0.404033    13A1     0.509039
       6B2     0.528895     6B1     0.559883    14A1     0.578056
       7B2     0.653684     7B1     0.683861     2A2     0.684326
      15A1     0.685646    16A1     0.806260     3A2     0.809416
      17A1     0.838407     8B2     0.847017     8B1     0.847315
       9B2     0.877622     9B1     0.894053    18A1     1.018515
      19A1     1.054979    10B2     1.083089     4A2     1.094939
      20A1     1.097893    10B1     1.097950    21A1     1.484280
      11B2     1.593497    11B1     1.613668    22A1     1.676965
       5A2     1.915765    23A1     1.917258    12B2     1.918029
      12B1     1.951738    24A1     2.089828    13B2     2.301380
      13B1     2.323928    25A1     2.324383     6A2     2.325994
      14B2     2.333461    14B1     2.353955    26A1     2.438902
      15B2     2.582352    15B1     2.618417    27A1     2.922242
      28A1     3.357264     7A2     3.931725    29A1     3.931825
      16B2     4.289083    16B1     4.302398    17B2     4.444136
      17B1     4.452664    30A1     4.574938    31A1     4.957236
      32A1     6.164160     8A2     7.305320    33A1     7.305674
      18B2     7.379650    18B1     7.402164    34A1     8.457993

    Beta Occupied:

       1A1   -91.981345     2A1    -8.981461     3A1    -6.663792
       1B1    -6.661620     1B2    -6.646230     4A1    -0.896229
       5A1    -0.534319     2B1    -0.381066

    Beta Virtual:

       2B2    -0.002821     6A1     0.031505     7A1     0.090946
       3B1     0.101047     3B2     0.116868     8A1     0.148894
       9A1     0.179593     4B1     0.236567     4B2     0.242911
      10A1     0.282530     1A2     0.282762    11A1     0.324129
       5B1     0.365773     5B2     0.368355    12A1     0.412387
      13A1     0.516923     6B1     0.565274    14A1     0.584656
       6B2     0.590426     7B1     0.687434     7B2     0.703289
       2A2     0.741671    15A1     0.742322     3A2     0.821215
      16A1     0.821219    17A1     0.845296     8B1     0.864318
       8B2     0.864333     9B2     0.892948     9B1     0.893120
      18A1     1.026562    19A1     1.064330    10B2     1.092233
      10B1     1.098593     4A2     1.101142    20A1     1.101874
      21A1     1.503114    11B2     1.612690    11B1     1.615653
      22A1     1.684620    23A1     1.944197     5A2     1.944269
      12B2     1.945753    12B1     1.954448    24A1     2.093959
      25A1     2.351719     6A2     2.352065    13B1     2.353398
      13B2     2.354452    14B1     2.368805    14B2     2.368914
      26A1     2.447421    15B2     2.622002    15B1     2.623115
      27A1     2.928557    28A1     3.358730     7A2     3.933344
      29A1     3.933364    16B2     4.294962    16B1     4.302132
      17B2     4.444912    17B1     4.450718    30A1     4.575083
      31A1     4.961666    32A1     6.176343     8A2     7.316202
      33A1     7.316294    18B2     7.390788    18B1     7.403818
      34A1     8.463351

    Final Occupation by Irrep:
             A1    A2    B1    B2
    DOCC [     5,    0,    2,    1 ]
    SOCC [     0,    0,    0,    1 ]

  @UHF Final Energy:  -398.10709697423613

   => Energetics <=

    Nuclear Repulsion Energy =              6.3344997403252012
    One-Electron Energy =                -562.7168134337134688
    Two-Electron Energy =                 158.2752167191521551
    Total Energy =                       -398.1070969742361285

  UHF NO Occupations:
  HONO-2 :    2 B1 1.9994308
  HONO-1 :    5 A1 1.9935809
  HONO-0 :    2 B2 1.0000000
  LUNO+0 :    6 A1 0.0064191
  LUNO+1 :    3 B1 0.0005692
  LUNO+2 :    7 A1 0.0003817
  LUNO+3 :    3 B2 0.0000027

Computation Completed

Properties will be evaluated at   0.000000,   0.000000,   0.000000 [a0]

Properties computed using the SCF density matrix

  Nuclear Dipole Moment: [e a0]
     X:     0.0000      Y:     0.0000      Z:     1.2137

  Electronic Dipole Moment: [e a0]
     X:     0.0000      Y:     0.0000      Z:    -0.8807

  Dipole Moment: [e a0]
     X:     0.0000      Y:     0.0000      Z:     0.3329     Total:     0.3329

  Dipole Moment: [D]
     X:     0.0000      Y:     0.0000      Z:     0.8462     Total:     0.8462

*** tstop() called on n412-040.vsc4.prov at Tue Jan 26 18:32:13 2021
Module time:
	user time   =      33.54 seconds =       0.56 minutes
	system time =       2.40 seconds =       0.04 minutes
	total time  =          6 seconds =       0.10 minutes
Total time:
	user time   =      33.54 seconds =       0.56 minutes
	system time =       2.40 seconds =       0.04 minutes
	total time  =          6 seconds =       0.10 minutes

*** tstart() called on n412-040.vsc4.prov
*** at Tue Jan 26 18:32:13 2021

	Wfn Parameters:
	--------------------
	Wavefunction         = CCSD_T
	Number of irreps     = 4
	Number of MOs        = 78
	Number of active MOs = 73
	AO-Basis             = NONE
	Semicanonical        = false
	Reference            = UHF
	Print Level          = 1

	IRREP	# MOs	# FZDC	# DOCC	# SOCC	# VIRT	# FZVR
	-----	-----	------	------	------	------	------
	 A1	   34	    3	    2	    0	    29	    0
	 A2	   8	    0	    0	    0	    8	    0
	 B1	   18	    1	    1	    0	    16	    0
	 B2	   18	    1	    0	    1	    16	    0
	Transforming integrals...
	IWL integrals will be deleted.
	(OO|OO)...
	Presorting SO-basis two-electron integrals.
	Sorting File: SO Ints (nn|nn) nbuckets = 1
	Constructing frozen core operators
	Starting AA/AB first half-transformation.
	Sorting AA/AB half-transformed integrals.
	Starting BB first half-transformation.
	Sorting BB half-transformed integrals.
	First half integral transformation complete.
	Starting AA second half-transformation.
	Starting AB second half-transformation.
	Starting BB second half-transformation.
	Two-electron integral transformation complete.
	(OO|OV)...
	Starting AA second half-transformation.
	Starting AB second half-transformation.
	Starting BB second half-transformation.
	Two-electron integral transformation complete.
	(OO|VV)...
	Starting AA second half-transformation.
	Starting AB second half-transformation.
	Starting BB second half-transformation.
	Two-electron integral transformation complete.
	(OV|OO)...
	Starting AA/AB first half-transformation.
	Sorting AA/AB half-transformed integrals.
	Starting BB first half-transformation.
	Sorting BB half-transformed integrals.
	First half integral transformation complete.
	Starting AA second half-transformation.
	Starting AB second half-transformation.
	Starting BB second half-transformation.
	Two-electron integral transformation complete.
	(OV|OV)...
	Starting AA second half-transformation.
	Starting AB second half-transformation.
	Starting BB second half-transformation.
	Two-electron integral transformation complete.
	(OV|VV)...
	Starting AA second half-transformation.
	Starting AB second half-transformation.
	Starting BB second half-transformation.
	Two-electron integral transformation complete.
	(VV|OO)...
	Starting AA/AB first half-transformation.
	Sorting AA/AB half-transformed integrals.
	Starting BB first half-transformation.
	Sorting BB half-transformed integrals.
	First half integral transformation complete.
	Starting AA second half-transformation.
	Starting AB second half-transformation.
	Starting BB second half-transformation.
	Two-electron integral transformation complete.
	(VV|OV)...
	Starting AA second half-transformation.
	Starting AB second half-transformation.
	Starting BB second half-transformation.
	Two-electron integral transformation complete.
	(VV|VV)...
	Starting AA second half-transformation.
	Starting AB second half-transformation.
	Starting BB second half-transformation.
	Two-electron integral transformation complete.
	Frozen core energy     =   -391.50989608910749

	Size of irrep 0 of <AB|CD> integrals:      0.454 (MW) /      3.634 (MB)
	Size of irrep 1 of <AB|CD> integrals:      0.238 (MW) /      1.905 (MB)
	Size of irrep 2 of <AB|CD> integrals:      0.350 (MW) /      2.804 (MB)
	Size of irrep 3 of <AB|CD> integrals:      0.350 (MW) /      2.804 (MB)
	Total:                                     1.393 (MW) /     11.147 (MB)

	Size of irrep 0 of <ab|cd> integrals:      0.476 (MW) /      3.809 (MB)
	Size of irrep 1 of <ab|cd> integrals:      0.254 (MW) /      2.032 (MB)
	Size of irrep 2 of <ab|cd> integrals:      0.360 (MW) /      2.880 (MB)
	Size of irrep 3 of <ab|cd> integrals:      0.386 (MW) /      3.085 (MB)
	Total:                                     1.476 (MW) /     11.806 (MB)

	Size of irrep 0 of <Ab|Cd> integrals:      2.053 (MW) /     16.428 (MB)
	Size of irrep 1 of <Ab|Cd> integrals:      0.984 (MW) /      7.873 (MB)
	Size of irrep 2 of <Ab|Cd> integrals:      1.421 (MW) /     11.367 (MB)
	Size of irrep 3 of <Ab|Cd> integrals:      1.471 (MW) /     11.771 (MB)
	Total:                                     5.930 (MW) /     47.438 (MB)

	Size of irrep 0 of <IA|BC> integrals:      0.128 (MW) /      1.020 (MB)
	Size of irrep 1 of <IA|BC> integrals:      0.047 (MW) /      0.375 (MB)
	Size of irrep 2 of <IA|BC> integrals:      0.082 (MW) /      0.654 (MB)
	Size of irrep 3 of <IA|BC> integrals:      0.082 (MW) /      0.654 (MB)
	Total:                                     0.338 (MW) /      2.702 (MB)

	Size of irrep 0 of <ia|bc> integrals:      0.107 (MW) /      0.858 (MB)
	Size of irrep 1 of <ia|bc> integrals:      0.033 (MW) /      0.266 (MB)
	Size of irrep 2 of <ia|bc> integrals:      0.073 (MW) /      0.586 (MB)
	Size of irrep 3 of <ia|bc> integrals:      0.052 (MW) /      0.417 (MB)
	Total:                                     0.266 (MW) /      2.127 (MB)

	Size of irrep 0 of <Ia|Bc> integrals:      0.130 (MW) /      1.043 (MB)
	Size of irrep 1 of <Ia|Bc> integrals:      0.049 (MW) /      0.389 (MB)
	Size of irrep 2 of <Ia|Bc> integrals:      0.082 (MW) /      0.658 (MB)
	Size of irrep 3 of <Ia|Bc> integrals:      0.086 (MW) /      0.689 (MB)
	Total:                                     0.347 (MW) /      2.779 (MB)

	Size of irrep 0 of <iA|bC> integrals:      0.106 (MW) /      0.848 (MB)
	Size of irrep 1 of <iA|bC> integrals:      0.032 (MW) /      0.254 (MB)
	Size of irrep 2 of <iA|bC> integrals:      0.073 (MW) /      0.582 (MB)
	Size of irrep 3 of <iA|bC> integrals:      0.049 (MW) /      0.388 (MB)
	Total:                                     0.259 (MW) /      2.072 (MB)

	Size of irrep 0 of tIjAb amplitudes:       0.007 (MW) /      0.057 (MB)
	Size of irrep 1 of tIjAb amplitudes:       0.001 (MW) /      0.008 (MB)
	Size of irrep 2 of tIjAb amplitudes:       0.005 (MW) /      0.038 (MB)
	Size of irrep 3 of tIjAb amplitudes:       0.002 (MW) /      0.019 (MB)
	Total:                                     0.015 (MW) /      0.123 (MB)

	Nuclear Rep. energy          =      6.33449974032520
	SCF energy                   =   -398.10709697423613
	One-electron energy          =    -21.63536740689820
	Two-electron (AA) energy     =      2.24247511835342
	Two-electron (BB) energy     =      1.07698087394623
	Two-electron (AB) energy     =      5.38421078914407
	Two-electron energy          =      8.70366678144372
	Reference energy             =   -398.10709697423675

*** tstop() called on n412-040.vsc4.prov at Tue Jan 26 18:32:18 2021
Module time:
	user time   =       0.97 seconds =       0.02 minutes
	system time =       0.70 seconds =       0.01 minutes
	total time  =          5 seconds =       0.08 minutes
Total time:
	user time   =      34.52 seconds =       0.58 minutes
	system time =       3.10 seconds =       0.05 minutes
	total time  =         11 seconds =       0.18 minutes
            **************************
            *                        *
            *        CCENERGY        *
            *                        *
            **************************

    Nuclear Rep. energy (wfn)     =    6.334499740325201
    SCF energy          (wfn)     = -398.107096974236129
    Reference energy    (file100) = -398.107096974236754

    Input parameters:
    -----------------
    Wave function   =     CCSD_T
    Reference wfn   =     UHF
    Brueckner       =     No
    Memory (Mbytes) =     250000.0
    Maxiter         =     50
    R_Convergence   =     1.0e-07
    E_Convergence   =     1.0e-06
    Restart         =     Yes
    DIIS            =     Yes
    AO Basis        =     NONE
    ABCD            =     NEW
    Cache Level     =     2
    Cache Type      =     LRU
    Print Level     =     1
    Num. of threads =     48
    # Amps to Print =     10
    Print MP2 Amps? =     No
    Analyze T2 Amps =     No
    Print Pair Ener =     No
    Local CC        =     No
    SCS-MP2         =     False
    SCSN-MP2        =     False
    SCS-CCSD        =     False

MP2 correlation energy -0.1544772387995580
                Solving CC Amplitude Equations
                ------------------------------
  Iter             Energy              RMS        T1Diag      D1Diag    New D1Diag    D2Diag
  ----     ---------------------    ---------   ----------  ----------  ----------   --------
     0        -0.154477238799558    0.000e+00    0.000000    0.000000    0.000000    0.000000
     1        -0.172766855819609    4.877e-02    0.009071    0.000000    0.000000    0.000000
     2        -0.179021442256996    1.744e-02    0.013869    0.000000    0.000000    0.000000
     3        -0.179414865718087    4.755e-03    0.015600    0.000000    0.000000    0.000000
     4        -0.179421010399303    1.483e-03    0.016085    0.000000    0.000000    0.000000
     5        -0.179407895859832    5.019e-04    0.016207    0.000000    0.000000    0.000000
     6        -0.179409350717113    1.676e-04    0.016234    0.000000    0.000000    0.000000
     7        -0.179410958235737    5.745e-05    0.016235    0.000000    0.000000    0.000000
     8        -0.179410908843674    1.890e-05    0.016235    0.000000    0.000000    0.000000
     9        -0.179410820468696    5.905e-06    0.016235    0.000000    0.000000    0.000000
    10        -0.179410826121515    2.167e-06    0.016235    0.000000    0.000000    0.000000
    11        -0.179410834186282    8.281e-07    0.016235    0.000000    0.000000    0.000000
    12        -0.179410844648978    2.913e-07    0.016235    0.000000    0.000000    0.000000
    13        -0.179410844344473    9.607e-08    0.016235    0.000000    0.000000    0.000000

    Iterations converged.

    Largest TIA Amplitudes:
              1   3         0.0126511240
              3  54        -0.0106605440
              1  11         0.0076300583
              1   5        -0.0068094019
              1   8        -0.0068077662
              3  57         0.0056762178
              3  53         0.0053865516
              1   4        -0.0044763166
              2  38         0.0044443126
              0   3         0.0043934487

    Largest Tia Amplitudes:
              0   9        -0.0131927637
              0   4        -0.0113039396
              2  38         0.0103943708
              1   4         0.0100724193
              1   9         0.0093612478
              0   3         0.0087927597
              0   2        -0.0077692201
              0   5        -0.0072146197
              2  41        -0.0062689543
              0   6         0.0061517494

    Largest TIJAB Amplitudes:
      3   2  30   9         0.0244729063
      3   2  29   4        -0.0214472471
      3   2  29   9         0.0203255615
      3   2  30   4        -0.0201799399
      3   1  54   3        -0.0183452337
      3   1  57   3         0.0166936650
      2   1  38   3         0.0165952530
      2   1  41   3        -0.0154547866
      3   2  56  40         0.0136471714
      2   1  41   5         0.0119844365

    Largest Tijab Amplitudes:
      2   1  38   3         0.0178984394
      2   1  41   3        -0.0159152252
      2   0  53  30        -0.0121682678
      2   0  53  29        -0.0111931239
      2   1  40   8        -0.0102697875
      2   1  41   5         0.0102046192
      1   0  58  53         0.0100945379
      2   1  41   7        -0.0099713235
      2   1  58  30         0.0097534624
      2   1  38   8        -0.0091364507

    Largest TIjAb Amplitudes:
      1   1   3   3        -0.0362253234
      2   0  30  53         0.0285453713
      2   2  30  30        -0.0277554930
      3   0   9  53         0.0277242682
      2   2   9   9         0.0275350403
      2   2  40  40        -0.0266872897
      2   2  41  41        -0.0244609230
      2   0  29  53         0.0241864659
      1   1   3   8         0.0236475248
      3   0   4  53        -0.0234196363

    SCF energy       (wfn)                    = -398.107096974236129
    Reference energy (file100)                = -398.107096974236754

    Opposite-spin MP2 correlation energy      =   -0.122188911573409
    Same-spin MP2 correlation energy          =   -0.032288327226149

      * MP2 total energy                      = -398.261574213036340
      * CCSD total energy                     = -398.286507818581242
      * CCSD(T) total energy                     = -398.293282767986170
*** Psi4 exiting successfully. Buy a developer a beer!
