                               Psi4 1.4a3.dev88

  ==> Input File <==

--------------------------------------------------------------------------
# Any line starting with the # character is a comment line
memory 250000 mb
molecule molecule{
0 2
S          0.0000000000        0.0000000000       -0.0407414360
H          0.0000000000        0.0000000000        1.2958811416
}

set {
  reference uhf
  basis aug-cc-pV(d+d)Z
  scf_type OUT_OF_CORE
  freeze_core true
}

energy('ccsd(t)')
--------------------------------------------------------------------------

    Molecular point group: c2v

    Geometry (in Angstrom), charge = 0, multiplicity = 2:

       Center              X                  Y                   Z               Mass
    ------------   -----------------  -----------------  -----------------  -----------------
         S            0.000000000000     0.000000000000    -0.040845540687    31.972071174400
         H            0.000000000000     0.000000000000     1.295777036913     1.007825032230

  Charge       = 0
  Multiplicity = 2
  Basis Set: AUG-CC-PV(D+D)Z
    Blend: AUG-CC-PV(D+D)Z

    Orbital Energies [Eh]
    ---------------------

    Alpha Occupied:

       1A1   -91.993527     2A1    -8.994299     1B1    -6.690084
       3A1    -6.672284     1B2    -6.669223     4A1    -0.991081
       5A1    -0.554444     2B1    -0.470099     2B2    -0.402449

    Alpha Virtual:

       6A1     0.037545     7A1     0.108528     3B1     0.112413
       3B2     0.123581     8A1     0.177880     9A1     0.189089
       4B1     0.288750     4B2     0.308689    10A1     0.352500
       1A2     0.352657    11A1     0.440747     5B1     0.514136
       5B2     0.533315    12A1     0.553525     6B1     0.790855
      13A1     0.822058     6B2     0.832934    14A1     0.865391
       7B1     1.038607     2A2     1.040375    15A1     1.040430
       7B2     1.073479    16A1     1.198936    17A1     1.539905
       8B1     1.837550     8B2     1.850785    18A1     2.353771
      19A1     5.018692     3A2     5.020242     9B1     5.057311
       9B2     5.081920    20A1     5.151197

    Beta Occupied:

       1A1   -91.984511     2A1    -8.984373     3A1    -6.667283
       1B2    -6.663831     1B1    -6.650233     4A1    -0.897593
       5A1    -0.534458     2B2    -0.378576

    Beta Virtual:

       2B1    -0.005854     6A1     0.039170     7A1     0.110457
       3B2     0.125280     3B1     0.143941     8A1     0.184636
       9A1     0.202041     4B2     0.310208     4B1     0.321586
       1A2     0.397752    10A1     0.397851    11A1     0.451394
       5B2     0.535536     5B1     0.540674    12A1     0.561354
      13A1     0.827166     6B2     0.841973     6B1     0.870113
      14A1     0.877728     7B2     1.079047     7B1     1.084288
       2A2     1.093300    15A1     1.094059    16A1     1.211130
      17A1     1.556691     8B1     1.846551     8B2     1.850105
      18A1     2.358589    19A1     5.029268     3A2     5.030007
       9B1     5.067027     9B2     5.083544    20A1     5.154919

    Final Occupation by Irrep:
             A1    A2    B1    B2
    DOCC [     5,    0,    1,    2 ]
    SOCC [     0,    0,    1,    0 ]

  @UHF Final Energy:  -398.09447010778882

   => Energetics <=

    Nuclear Repulsion Energy =              6.3344997403252012
    One-Electron Energy =                -562.6595913564602824
    Two-Electron Energy =                 158.2306215083462746
    Total Energy =                       -398.0944701077887657

  UHF NO Occupations:
  HONO-2 :    4 A1 1.9997508
  HONO-1 :    5 A1 1.9944655
  HONO-0 :    2 B1 1.0000000
  LUNO+0 :    6 A1 0.0055345
  LUNO+1 :    7 A1 0.0002492
  LUNO+2 :    3 B2 0.0002377
  LUNO+3 :    3 B1 0.0000008

Computation Completed

Properties will be evaluated at   0.000000,   0.000000,   0.000000 [a0]

Properties computed using the SCF density matrix

  Nuclear Dipole Moment: [e a0]
     X:     0.0000      Y:     0.0000      Z:     1.2137

  Electronic Dipole Moment: [e a0]
     X:     0.0000      Y:     0.0000      Z:    -0.8706

  Dipole Moment: [e a0]
     X:     0.0000      Y:     0.0000      Z:     0.3430     Total:     0.3430

  Dipole Moment: [D]
     X:     0.0000      Y:     0.0000      Z:     0.8719     Total:     0.8719

*** tstop() called on n412-039.vsc4.prov at Tue Jan 26 18:36:08 2021
Module time:
	user time   =      18.18 seconds =       0.30 minutes
	system time =       1.70 seconds =       0.03 minutes
	total time  =          3 seconds =       0.05 minutes
Total time:
	user time   =      18.18 seconds =       0.30 minutes
	system time =       1.70 seconds =       0.03 minutes
	total time  =          3 seconds =       0.05 minutes

*** tstart() called on n412-039.vsc4.prov
*** at Tue Jan 26 18:36:08 2021

	Wfn Parameters:
	--------------------
	Wavefunction         = CCSD_T
	Number of irreps     = 4
	Number of MOs        = 41
	Number of active MOs = 36
	AO-Basis             = NONE
	Semicanonical        = false
	Reference            = UHF
	Print Level          = 1

	IRREP	# MOs	# FZDC	# DOCC	# SOCC	# VIRT	# FZVR
	-----	-----	------	------	------	------	------
	 A1	   20	    3	    2	    0	    15	    0
	 A2	   3	    0	    0	    0	    3	    0
	 B1	   9	    1	    0	    1	    7	    0
	 B2	   9	    1	    1	    0	    7	    0
	Transforming integrals...
	IWL integrals will be deleted.
	(OO|OO)...
	Presorting SO-basis two-electron integrals.
	Sorting File: SO Ints (nn|nn) nbuckets = 1
	Constructing frozen core operators
	Starting AA/AB first half-transformation.
	Sorting AA/AB half-transformed integrals.
	Starting BB first half-transformation.
	Sorting BB half-transformed integrals.
	First half integral transformation complete.
	Starting AA second half-transformation.
	Starting AB second half-transformation.
	Starting BB second half-transformation.
	Two-electron integral transformation complete.
	(OO|OV)...
	Starting AA second half-transformation.
	Starting AB second half-transformation.
	Starting BB second half-transformation.
	Two-electron integral transformation complete.
	(OO|VV)...
	Starting AA second half-transformation.
	Starting AB second half-transformation.
	Starting BB second half-transformation.
	Two-electron integral transformation complete.
	(OV|OO)...
	Starting AA/AB first half-transformation.
	Sorting AA/AB half-transformed integrals.
	Starting BB first half-transformation.
	Sorting BB half-transformed integrals.
	First half integral transformation complete.
	Starting AA second half-transformation.
	Starting AB second half-transformation.
	Starting BB second half-transformation.
	Two-electron integral transformation complete.
	(OV|OV)...
	Starting AA second half-transformation.
	Starting AB second half-transformation.
	Starting BB second half-transformation.
	Two-electron integral transformation complete.
	(OV|VV)...
	Starting AA second half-transformation.
	Starting AB second half-transformation.
	Starting BB second half-transformation.
	Two-electron integral transformation complete.
	(VV|OO)...
	Starting AA/AB first half-transformation.
	Sorting AA/AB half-transformed integrals.
	Starting BB first half-transformation.
	Sorting BB half-transformed integrals.
	First half integral transformation complete.
	Starting AA second half-transformation.
	Starting AB second half-transformation.
	Starting BB second half-transformation.
	Two-electron integral transformation complete.
	(VV|OV)...
	Starting AA second half-transformation.
	Starting AB second half-transformation.
	Starting BB second half-transformation.
	Two-electron integral transformation complete.
	(VV|VV)...
	Starting AA second half-transformation.
	Starting AB second half-transformation.
	Starting BB second half-transformation.
	Two-electron integral transformation complete.
	Frozen core energy     =   -391.50457156819226

	Size of irrep 0 of <AB|CD> integrals:      0.022 (MW) /      0.180 (MB)
	Size of irrep 1 of <AB|CD> integrals:      0.009 (MW) /      0.071 (MB)
	Size of irrep 2 of <AB|CD> integrals:      0.016 (MW) /      0.127 (MB)
	Size of irrep 3 of <AB|CD> integrals:      0.016 (MW) /      0.127 (MB)
	Total:                                     0.063 (MW) /      0.505 (MB)

	Size of irrep 0 of <ab|cd> integrals:      0.025 (MW) /      0.197 (MB)
	Size of irrep 1 of <ab|cd> integrals:      0.010 (MW) /      0.082 (MB)
	Size of irrep 2 of <ab|cd> integrals:      0.020 (MW) /      0.159 (MB)
	Size of irrep 3 of <ab|cd> integrals:      0.017 (MW) /      0.133 (MB)
	Total:                                     0.071 (MW) /      0.571 (MB)

	Size of irrep 0 of <Ab|Cd> integrals:      0.115 (MW) /      0.919 (MB)
	Size of irrep 1 of <Ab|Cd> integrals:      0.038 (MW) /      0.304 (MB)
	Size of irrep 2 of <Ab|Cd> integrals:      0.071 (MW) /      0.570 (MB)
	Size of irrep 3 of <Ab|Cd> integrals:      0.065 (MW) /      0.520 (MB)
	Total:                                     0.289 (MW) /      2.314 (MB)

	Size of irrep 0 of <IA|BC> integrals:      0.015 (MW) /      0.117 (MB)
	Size of irrep 1 of <IA|BC> integrals:      0.004 (MW) /      0.030 (MB)
	Size of irrep 2 of <IA|BC> integrals:      0.008 (MW) /      0.065 (MB)
	Size of irrep 3 of <IA|BC> integrals:      0.008 (MW) /      0.065 (MB)
	Total:                                     0.034 (MW) /      0.276 (MB)

	Size of irrep 0 of <ia|bc> integrals:      0.013 (MW) /      0.103 (MB)
	Size of irrep 1 of <ia|bc> integrals:      0.003 (MW) /      0.023 (MB)
	Size of irrep 2 of <ia|bc> integrals:      0.005 (MW) /      0.043 (MB)
	Size of irrep 3 of <ia|bc> integrals:      0.007 (MW) /      0.060 (MB)
	Total:                                     0.029 (MW) /      0.228 (MB)

	Size of irrep 0 of <Ia|Bc> integrals:      0.015 (MW) /      0.122 (MB)
	Size of irrep 1 of <Ia|Bc> integrals:      0.004 (MW) /      0.033 (MB)
	Size of irrep 2 of <Ia|Bc> integrals:      0.009 (MW) /      0.073 (MB)
	Size of irrep 3 of <Ia|Bc> integrals:      0.008 (MW) /      0.065 (MB)
	Total:                                     0.037 (MW) /      0.293 (MB)

	Size of irrep 0 of <iA|bC> integrals:      0.013 (MW) /      0.100 (MB)
	Size of irrep 1 of <iA|bC> integrals:      0.003 (MW) /      0.020 (MB)
	Size of irrep 2 of <iA|bC> integrals:      0.005 (MW) /      0.036 (MB)
	Size of irrep 3 of <iA|bC> integrals:      0.007 (MW) /      0.059 (MB)
	Total:                                     0.027 (MW) /      0.216 (MB)

	Size of irrep 0 of tIjAb amplitudes:       0.002 (MW) /      0.014 (MB)
	Size of irrep 1 of tIjAb amplitudes:       0.000 (MW) /      0.002 (MB)
	Size of irrep 2 of tIjAb amplitudes:       0.001 (MW) /      0.004 (MB)
	Size of irrep 3 of tIjAb amplitudes:       0.001 (MW) /      0.008 (MB)
	Total:                                     0.003 (MW) /      0.028 (MB)

	Nuclear Rep. energy          =      6.33449974032520
	SCF energy                   =   -398.09447010778882
	One-electron energy          =    -21.62009695533498
	Two-electron (AA) energy     =      2.24032609959819
	Two-electron (BB) energy     =      1.07556299803697
	Two-electron (AB) energy     =      5.37980957777786
	Two-electron energy          =      8.69569867541302
	Reference energy             =   -398.09447010778899

*** tstop() called on n412-039.vsc4.prov at Tue Jan 26 18:36:09 2021
Module time:
	user time   =       0.10 seconds =       0.00 minutes
	system time =       0.16 seconds =       0.00 minutes
	total time  =          1 seconds =       0.02 minutes
Total time:
	user time   =      18.28 seconds =       0.30 minutes
	system time =       1.86 seconds =       0.03 minutes
	total time  =          4 seconds =       0.07 minutes
            **************************
            *                        *
            *        CCENERGY        *
            *                        *
            **************************

    Nuclear Rep. energy (wfn)     =    6.334499740325201
    SCF energy          (wfn)     = -398.094470107788823
    Reference energy    (file100) = -398.094470107788993

    Input parameters:
    -----------------
    Wave function   =     CCSD_T
    Reference wfn   =     UHF
    Brueckner       =     No
    Memory (Mbytes) =     250000.0
    Maxiter         =     50
    R_Convergence   =     1.0e-07
    E_Convergence   =     1.0e-06
    Restart         =     Yes
    DIIS            =     Yes
    AO Basis        =     NONE
    ABCD            =     NEW
    Cache Level     =     2
    Cache Type      =     LRU
    Print Level     =     1
    Num. of threads =     48
    # Amps to Print =     10
    Print MP2 Amps? =     No
    Analyze T2 Amps =     No
    Print Pair Ener =     No
    Local CC        =     No
    SCS-MP2         =     False
    SCSN-MP2        =     False
    SCS-CCSD        =     False

MP2 correlation energy -0.1218373178986418
                Solving CC Amplitude Equations
                ------------------------------
  Iter             Energy              RMS        T1Diag      D1Diag    New D1Diag    D2Diag
  ----     ---------------------    ---------   ----------  ----------  ----------   --------
     0        -0.121837317898642    0.000e+00    0.000000    0.000000    0.000000    0.000000
     1        -0.139315812067218    4.760e-02    0.008486    0.000000    0.000000    0.000000
     2        -0.144849919099236    1.717e-02    0.013294    0.000000    0.000000    0.000000
     3        -0.145273631464687    4.538e-03    0.014881    0.000000    0.000000    0.000000
     4        -0.145281112044470    1.290e-03    0.015162    0.000000    0.000000    0.000000
     5        -0.145276274683059    5.065e-04    0.015265    0.000000    0.000000    0.000000
     6        -0.145277152860491    1.481e-04    0.015274    0.000000    0.000000    0.000000
     7        -0.145278382225714    4.339e-05    0.015274    0.000000    0.000000    0.000000
     8        -0.145278426630168    1.411e-05    0.015274    0.000000    0.000000    0.000000
     9        -0.145278328146375    4.130e-06    0.015274    0.000000    0.000000    0.000000
    10        -0.145278327489547    1.586e-06    0.015274    0.000000    0.000000    0.000000
    11        -0.145278323635833    5.489e-07    0.015274    0.000000    0.000000    0.000000
    12        -0.145278326031874    2.054e-07    0.015274    0.000000    0.000000    0.000000
    13        -0.145278323986789    6.755e-08    0.015274    0.000000    0.000000    0.000000

    Iterations converged.

    Largest TIA Amplitudes:
              2  19         0.0112169168
              1   5        -0.0104771469
              1   3        -0.0096139038
              2  18         0.0088219388
              1  10         0.0082580521
              1   2         0.0050608429
              1   4        -0.0049013454
              3  26         0.0046958641
              1   1         0.0041679304
              1   8         0.0040846449

    Largest Tia Amplitudes:
              0   4        -0.0141263364
              1   4         0.0131673850
              0   3         0.0110007135
              2  27        -0.0109270228
              0   9         0.0088884885
              0   5         0.0070670119
              1   9        -0.0065305530
              2  26        -0.0045463946
              0   7         0.0041447720
              1  10        -0.0040413625

    Largest TIJAB Amplitudes:
      3   2  15   4        -0.0335222544
      2   1  19   3        -0.0252820114
      3   1  26   3        -0.0246602696
      3   2  15   9         0.0170912287
      3   2  16   4        -0.0170153233
      3   2  28  21        -0.0157055808
      3   2  16   9         0.0150403850
      3   1  26   5        -0.0149324287
      3   2  26  19        -0.0147095865
      2   1  26  15        -0.0130328741

    Largest Tijab Amplitudes:
      2   1  27   3        -0.0252834055
      2   0  18  15         0.0144927634
      2   1  27   4        -0.0131005905
      2   1  20  15        -0.0122095345
      2   1  27   5        -0.0113063706
      1   0  20  18         0.0107132759
      2   1  30   3        -0.0104558851
      2   1  29   7         0.0101848917
      2   1  29   3         0.0094963112
      2   1  28   5        -0.0091791463

    Largest TIjAb Amplitudes:
      1   1   3   3         0.0624419899
      3   2  15  15         0.0363400366
      3   2   4   4        -0.0359181641
      2   0   4  18         0.0319361628
      3   0  15  18         0.0318061397
      1   1   3   7         0.0313034599
      1   1   7   3         0.0301478540
      3   2  28  29         0.0298226774
      3   2  26  27         0.0287205778
      1   1   7   7         0.0265198719

    SCF energy       (wfn)                    = -398.094470107788823
    Reference energy (file100)                = -398.094470107788993

    Opposite-spin MP2 correlation energy      =   -0.094438739412300
    Same-spin MP2 correlation energy          =   -0.027398578486342
    Singles MP2 correlation energy            =   -0.000000000000000
    MP2 correlation energy                    =   -0.121837317898642
      * MP2 total energy                      = -398.216307425687660

    Opposite-spin CCSD correlation energy     =   -0.117349719076750
    Same-spin CCSD correlation energy         =   -0.027928604910039
    Singles CCSD correlation energy           =    0.000000000000000
    CCSD correlation energy                   =   -0.145278323986789
      * CCSD total energy                     = -398.239748431775809

            **************************
            *                        *
            *        CCTRIPLES       *
            *                        *
            **************************

    Wave function   =    CCSD_T
    Reference wfn   =      UHF

    Nuclear Rep. energy (wfn)                =    6.334499740325201
    SCF energy          (wfn)                = -398.094470107788823
    Reference energy    (file100)            = -398.094470107788993
    CCSD energy         (file100)            =   -0.145278323986789
    Total CCSD energy   (file100)            = -398.239748431775809

      * CCSD(T) total energy                     = -398.243408164096877
*** Psi4 exiting successfully. Buy a developer a beer!
