                               Psi4 1.4a3.dev88

  ==> Input File <==

--------------------------------------------------------------------------
# Any line starting with the # character is a comment line
memory 250000 mb
molecule molecule{
-1 2
P          0.0000000000        0.0000000000        0.0450645625
H          0.0000000000        0.0000000000       -1.3848234457
}

set {
  reference uhf
  basis aug-cc-pV(d+d)Z
  scf_type OUT_OF_CORE
  freeze_core true
}

energy('ccsd(t)')
--------------------------------------------------------------------------

    Molecular point group: c2v

    Geometry (in Angstrom), charge = -1, multiplicity = 2:

       Center              X                  Y                   Z               Mass
    ------------   -----------------  -----------------  -----------------  -----------------
         P            0.000000000000     0.000000000000     0.045059581520    30.973761998420
         H            0.000000000000     0.000000000000    -1.384828426680     1.007825032230

  Charge       = -1
  Multiplicity = 2
  Basis Set: AUG-CC-PV(D+D)Z
    Blend: AUG-CC-PV(D+D)Z

    Orbital Energies [Eh]
    ---------------------

    Alpha Occupied:

       1A1   -79.695597     2A1    -7.234359     1B1    -5.137685
       3A1    -5.125538     1B2    -5.124352     4A1    -0.551881
       5A1    -0.213953     2B1    -0.113562     2B2    -0.057799

    Alpha Virtual:

       6A1     0.173617     7A1     0.248979     3B1     0.259136
       3B2     0.275792     8A1     0.327616     9A1     0.412059
       4B1     0.476772     4B2     0.496789     1A2     0.497694
      10A1     0.498330    11A1     0.608146     5B1     0.681859
       5B2     0.695975    12A1     0.751833     6B1     0.936380
      13A1     0.972301     6B2     0.973848    14A1     0.998885
       7B1     1.085490     2A2     1.108543    15A1     1.109668
       7B2     1.115867    16A1     1.345940    17A1     1.420295
       8B1     2.121229     8B2     2.131234    18A1     2.513084
      19A1     4.608404     3A2     4.609175     9B1     4.628333
       9B2     4.643845    20A1     4.708032

    Beta Occupied:

       1A1   -79.689562     2A1    -7.227198     3A1    -5.122320
       1B2    -5.119103     1B1    -5.110632     4A1    -0.479768
       5A1    -0.193399     2B2    -0.030679

    Beta Virtual:

       6A1     0.174239     2B1     0.213006     7A1     0.250746
       3B2     0.281617     8A1     0.335881     3B1     0.342925
       9A1     0.424116     4B2     0.498687     4B1     0.512507
       1A2     0.535068    10A1     0.536151    11A1     0.615972
       5B1     0.694975     5B2     0.697088    12A1     0.765195
      13A1     0.978174     6B2     0.986198     6B1     1.005499
      14A1     1.006291     7B2     1.122566     7B1     1.129122
       2A2     1.157479    15A1     1.158086    16A1     1.355497
      17A1     1.436306     8B1     2.127475     8B2     2.131105
      18A1     2.517011    19A1     4.615864     3A2     4.616226
       9B1     4.634986     9B2     4.645203    20A1     4.710560

    Final Occupation by Irrep:
             A1    A2    B1    B2
    DOCC [     5,    0,    1,    2 ]
    SOCC [     0,    0,    1,    0 ]

  @UHF Final Energy:  -341.28321285918548

   => Energetics <=

    Nuclear Repulsion Energy =              5.5512446530985606
    One-Electron Energy =                -487.4415267127703828
    Two-Electron Energy =                 140.6070692004863645
    Total Energy =                       -341.2832128591854826

  UHF NO Occupations:
  HONO-2 :    2 B2 1.9974235
  HONO-1 :    5 A1 1.9932177
  HONO-0 :    2 B1 1.0000000
  LUNO+0 :    6 A1 0.0067823
  LUNO+1 :    3 B2 0.0025765
  LUNO+2 :    7 A1 0.0002204
  LUNO+3 :    3 B1 0.0000006

Computation Completed

Properties will be evaluated at   0.000000,   0.000000,   0.000000 [a0]

Properties computed using the SCF density matrix

  Nuclear Dipole Moment: [e a0]
     X:     0.0000      Y:     0.0000      Z:    -1.3397

  Electronic Dipole Moment: [e a0]
     X:     0.0000      Y:     0.0000      Z:     1.2186

  Dipole Moment: [e a0]
     X:     0.0000      Y:     0.0000      Z:    -0.1211     Total:     0.1211

  Dipole Moment: [D]
     X:     0.0000      Y:     0.0000      Z:    -0.3077     Total:     0.3077

*** tstop() called on n412-039.vsc4.prov at Tue Jan 26 18:33:31 2021
Module time:
	user time   =      20.30 seconds =       0.34 minutes
	system time =       1.57 seconds =       0.03 minutes
	total time  =          2 seconds =       0.03 minutes
Total time:
	user time   =      20.30 seconds =       0.34 minutes
	system time =       1.57 seconds =       0.03 minutes
	total time  =          2 seconds =       0.03 minutes

*** tstart() called on n412-039.vsc4.prov
*** at Tue Jan 26 18:33:31 2021

	Wfn Parameters:
	--------------------
	Wavefunction         = CCSD_T
	Number of irreps     = 4
	Number of MOs        = 41
	Number of active MOs = 36
	AO-Basis             = NONE
	Semicanonical        = false
	Reference            = UHF
	Print Level          = 1

	IRREP	# MOs	# FZDC	# DOCC	# SOCC	# VIRT	# FZVR
	-----	-----	------	------	------	------	------
	 A1	   20	    3	    2	    0	    15	    0
	 A2	   3	    0	    0	    0	    3	    0
	 B1	   9	    1	    0	    1	    7	    0
	 B2	   9	    1	    1	    0	    7	    0
	Transforming integrals...
	IWL integrals will be deleted.
	(OO|OO)...
	Presorting SO-basis two-electron integrals.
	Sorting File: SO Ints (nn|nn) nbuckets = 1
	Constructing frozen core operators
	Starting AA/AB first half-transformation.
	Sorting AA/AB half-transformed integrals.
	Starting BB first half-transformation.
	Sorting BB half-transformed integrals.
	First half integral transformation complete.
	Starting AA second half-transformation.
	Starting AB second half-transformation.
	Starting BB second half-transformation.
	Two-electron integral transformation complete.
	(OO|OV)...
	Starting AA second half-transformation.
	Starting AB second half-transformation.
	Starting BB second half-transformation.
	Two-electron integral transformation complete.
	(OO|VV)...
	Starting AA second half-transformation.
	Starting AB second half-transformation.
	Starting BB second half-transformation.
	Two-electron integral transformation complete.
	(OV|OO)...
	Starting AA/AB first half-transformation.
	Sorting AA/AB half-transformed integrals.
	Starting BB first half-transformation.
	Sorting BB half-transformed integrals.
	First half integral transformation complete.
	Starting AA second half-transformation.
	Starting AB second half-transformation.
	Starting BB second half-transformation.
	Two-electron integral transformation complete.
	(OV|OV)...
	Starting AA second half-transformation.
	Starting AB second half-transformation.
	Starting BB second half-transformation.
	Two-electron integral transformation complete.
	(OV|VV)...
	Starting AA second half-transformation.
	Starting AB second half-transformation.
	Starting BB second half-transformation.
	Two-electron integral transformation complete.
	(VV|OO)...
	Starting AA/AB first half-transformation.
	Sorting AA/AB half-transformed integrals.
	Starting BB first half-transformation.
	Sorting BB half-transformed integrals.
	First half integral transformation complete.
	Starting AA second half-transformation.
	Starting AB second half-transformation.
	Starting BB second half-transformation.
	Two-electron integral transformation complete.
	(VV|OV)...
	Starting AA second half-transformation.
	Starting AB second half-transformation.
	Starting BB second half-transformation.
	Two-electron integral transformation complete.
	(VV|VV)...
	Starting AA second half-transformation.
	Starting AB second half-transformation.
	Starting BB second half-transformation.
	Two-electron integral transformation complete.
	Frozen core energy     =   -338.05737495635958

	Size of irrep 0 of <AB|CD> integrals:      0.022 (MW) /      0.180 (MB)
	Size of irrep 1 of <AB|CD> integrals:      0.009 (MW) /      0.071 (MB)
	Size of irrep 2 of <AB|CD> integrals:      0.016 (MW) /      0.127 (MB)
	Size of irrep 3 of <AB|CD> integrals:      0.016 (MW) /      0.127 (MB)
	Total:                                     0.063 (MW) /      0.505 (MB)

	Size of irrep 0 of <ab|cd> integrals:      0.025 (MW) /      0.197 (MB)
	Size of irrep 1 of <ab|cd> integrals:      0.010 (MW) /      0.082 (MB)
	Size of irrep 2 of <ab|cd> integrals:      0.020 (MW) /      0.159 (MB)
	Size of irrep 3 of <ab|cd> integrals:      0.017 (MW) /      0.133 (MB)
	Total:                                     0.071 (MW) /      0.571 (MB)

	Size of irrep 0 of <Ab|Cd> integrals:      0.115 (MW) /      0.919 (MB)
	Size of irrep 1 of <Ab|Cd> integrals:      0.038 (MW) /      0.304 (MB)
	Size of irrep 2 of <Ab|Cd> integrals:      0.071 (MW) /      0.570 (MB)
	Size of irrep 3 of <Ab|Cd> integrals:      0.065 (MW) /      0.520 (MB)
	Total:                                     0.289 (MW) /      2.314 (MB)

	Size of irrep 0 of <IA|BC> integrals:      0.015 (MW) /      0.117 (MB)
	Size of irrep 1 of <IA|BC> integrals:      0.004 (MW) /      0.030 (MB)
	Size of irrep 2 of <IA|BC> integrals:      0.008 (MW) /      0.065 (MB)
	Size of irrep 3 of <IA|BC> integrals:      0.008 (MW) /      0.065 (MB)
	Total:                                     0.034 (MW) /      0.276 (MB)

	Size of irrep 0 of <ia|bc> integrals:      0.013 (MW) /      0.103 (MB)
	Size of irrep 1 of <ia|bc> integrals:      0.003 (MW) /      0.023 (MB)
	Size of irrep 2 of <ia|bc> integrals:      0.005 (MW) /      0.043 (MB)
	Size of irrep 3 of <ia|bc> integrals:      0.007 (MW) /      0.060 (MB)
	Total:                                     0.029 (MW) /      0.228 (MB)

	Size of irrep 0 of <Ia|Bc> integrals:      0.015 (MW) /      0.122 (MB)
	Size of irrep 1 of <Ia|Bc> integrals:      0.004 (MW) /      0.033 (MB)
	Size of irrep 2 of <Ia|Bc> integrals:      0.009 (MW) /      0.073 (MB)
	Size of irrep 3 of <Ia|Bc> integrals:      0.008 (MW) /      0.065 (MB)
	Total:                                     0.037 (MW) /      0.293 (MB)

	Size of irrep 0 of <iA|bC> integrals:      0.013 (MW) /      0.100 (MB)
	Size of irrep 1 of <iA|bC> integrals:      0.003 (MW) /      0.020 (MB)
	Size of irrep 2 of <iA|bC> integrals:      0.005 (MW) /      0.036 (MB)
	Size of irrep 3 of <iA|bC> integrals:      0.007 (MW) /      0.059 (MB)
	Total:                                     0.027 (MW) /      0.216 (MB)

	Size of irrep 0 of tIjAb amplitudes:       0.002 (MW) /      0.014 (MB)
	Size of irrep 1 of tIjAb amplitudes:       0.000 (MW) /      0.002 (MB)
	Size of irrep 2 of tIjAb amplitudes:       0.001 (MW) /      0.004 (MB)
	Size of irrep 3 of tIjAb amplitudes:       0.001 (MW) /      0.008 (MB)
	Total:                                     0.003 (MW) /      0.028 (MB)

	Nuclear Rep. energy          =      5.55124465309856
	SCF energy                   =   -341.28321285918548
	One-electron energy          =    -15.91312385066436
	Two-electron (AA) energy     =      1.83970905054891
	Two-electron (BB) energy     =      0.87680653780725
	Two-electron (AB) energy     =      4.41952570638431
	Two-electron energy          =      7.13604129474047
	Reference energy             =   -341.28321285918491

*** tstop() called on n412-039.vsc4.prov at Tue Jan 26 18:33:32 2021
Module time:
	user time   =       0.06 seconds =       0.00 minutes
	system time =       0.18 seconds =       0.00 minutes
	total time  =          1 seconds =       0.02 minutes
Total time:
	user time   =      20.36 seconds =       0.34 minutes
	system time =       1.75 seconds =       0.03 minutes
	total time  =          3 seconds =       0.05 minutes
            **************************
            *                        *
            *        CCENERGY        *
            *                        *
            **************************

    Nuclear Rep. energy (wfn)     =    5.551244653098561
    SCF energy          (wfn)     = -341.283212859185483
    Reference energy    (file100) = -341.283212859184914

    Input parameters:
    -----------------
    Wave function   =     CCSD_T
    Reference wfn   =     UHF
    Brueckner       =     No
    Memory (Mbytes) =     250000.0
    Maxiter         =     50
    R_Convergence   =     1.0e-07
    E_Convergence   =     1.0e-06
    Restart         =     Yes
    DIIS            =     Yes
    AO Basis        =     NONE
    ABCD            =     NEW
    Cache Level     =     2
    Cache Type      =     LRU
    Print Level     =     1
    Num. of threads =     48
    # Amps to Print =     10
    Print MP2 Amps? =     No
    Analyze T2 Amps =     No
    Print Pair Ener =     No
    Local CC        =     No
    SCS-MP2         =     False
    SCSN-MP2        =     False
    SCS-CCSD        =     False

MP2 correlation energy -0.1187317732860357
                Solving CC Amplitude Equations
                ------------------------------
  Iter             Energy              RMS        T1Diag      D1Diag    New D1Diag    D2Diag
  ----     ---------------------    ---------   ----------  ----------  ----------   --------
     0        -0.118731773286036    0.000e+00    0.000000    0.000000    0.000000    0.000000
     1        -0.135621928525757    5.707e-02    0.011620    0.000000    0.000000    0.000000
     2        -0.141443370649234    2.199e-02    0.018274    0.000000    0.000000    0.000000
     3        -0.142018720111079    7.503e-03    0.021133    0.000000    0.000000    0.000000
     4        -0.142017601353434    3.156e-03    0.022149    0.000000    0.000000    0.000000
     5        -0.142006385599140    1.482e-03    0.022575    0.000000    0.000000    0.000000
     6        -0.142011523098483    5.800e-04    0.022621    0.000000    0.000000    0.000000
     7        -0.142017248492183    2.413e-04    0.022597    0.000000    0.000000    0.000000
     8        -0.142018432257671    9.834e-05    0.022586    0.000000    0.000000    0.000000
     9        -0.142017540836813    3.541e-05    0.022581    0.000000    0.000000    0.000000
    10        -0.142017619624205    1.259e-05    0.022580    0.000000    0.000000    0.000000
    11        -0.142017603122687    4.209e-06    0.022580    0.000000    0.000000    0.000000
    12        -0.142017659435540    1.489e-06    0.022580    0.000000    0.000000    0.000000
    13        -0.142017656212090    5.112e-07    0.022580    0.000000    0.000000    0.000000
    14        -0.142017652929479    1.918e-07    0.022580    0.000000    0.000000    0.000000
    15        -0.142017651937858    7.687e-08    0.022580    0.000000    0.000000    0.000000

    Iterations converged.

    Largest TIA Amplitudes:
              2  18        -0.0273467502
              1   3         0.0170908902
              3  25        -0.0167757027
              2  19        -0.0138017087
              1   5         0.0127142076
              1   1        -0.0106027985
              1   2         0.0082075779
              1  10        -0.0060874302
              1  11         0.0055090343
              1   4        -0.0053419069

    Largest Tia Amplitudes:
              1   4        -0.0166777583
              0   4        -0.0146802966
              0   3        -0.0146205670
              2  27        -0.0142155220
              0   9         0.0078531776
              0   6         0.0077513088
              1   9         0.0073138435
              2  29        -0.0072913634
              1   0        -0.0064965834
              1   1        -0.0061987690

    Largest TIJAB Amplitudes:
      3   2  15   4         0.0370057145
      2   1  19   3        -0.0303231970
      3   1  26   3        -0.0287019180
      3   2  25  18        -0.0238307267
      3   2  26  19        -0.0200400404
      3   2  15   9        -0.0163421796
      3   2  16   4         0.0162408465
      3   1  26   4        -0.0160464926
      3   2  16   9        -0.0151836047
      3   2  25  21         0.0150930625

    Largest Tijab Amplitudes:
      2   1  27   3        -0.0292846541
      2   0  19  15        -0.0140807183
      2   1  20  15        -0.0135049017
      2   1  26   1        -0.0130839444
      2   1  27   4         0.0120127167
      2   1  30   3         0.0112865250
      2   1  27   7         0.0108860345
      1   0  20  19        -0.0108418590
      2   0  26   2        -0.0099583284
      2   1  26   3        -0.0096008519

    Largest TIjAb Amplitudes:
      1   1   3   3        -0.0655208051
      3   2  25  26        -0.0592670875
      3   2  26  27        -0.0407913779
      3   2  15  15        -0.0400114176
      3   2   4   4         0.0392583594
      2   2  18  26        -0.0354709575
      1   2   3  27        -0.0298964750
      3   1  26   3        -0.0284388454
      2   1  19   3        -0.0283248415
      2   2  19  27        -0.0282103848

    SCF energy       (wfn)                    = -341.283212859185483
    Reference energy (file100)                = -341.283212859184914

    Opposite-spin MP2 correlation energy      =   -0.092743925422191
    Same-spin MP2 correlation energy          =   -0.025987847863845
    Singles MP2 correlation energy            =   -0.000000000000000
    MP2 correlation energy                    =   -0.118731773286036
      * MP2 total energy                      = -341.401944632470929

    Opposite-spin CCSD correlation energy     =   -0.115817228890960
    Same-spin CCSD correlation energy         =   -0.026200423046898
    Singles CCSD correlation energy           =   -0.000000000000000
    CCSD correlation energy                   =   -0.142017651937858
      * CCSD total energy                     = -341.425230511122777

            **************************
            *                        *
            *        CCTRIPLES       *
            *                        *
            **************************

    Wave function   =    CCSD_T
    Reference wfn   =      UHF

    Nuclear Rep. energy (wfn)                =    5.551244653098561
    SCF energy          (wfn)                = -341.283212859185483
    Reference energy    (file100)            = -341.283212859184914

      * CCSD(T) total energy                     = -341.430213422389158
*** Psi4 exiting successfully. Buy a developer a beer!
