                               Psi4 1.4a3.dev88

  ==> Input File <==

--------------------------------------------------------------------------
# Any line starting with the # character is a comment line
memory 250000 mb
molecule molecule{
-1 2
P          0.0000000000        0.0000000000        0.0450645625
H          0.0000000000        0.0000000000       -1.3848234457
}

set {
  reference uhf
  basis aug-cc-pV(Q+d)Z
  scf_type OUT_OF_CORE
  freeze_core true
}

energy('ccsd(t)')
--------------------------------------------------------------------------

    Molecular point group: c2v

    Geometry (in Angstrom), charge = -1, multiplicity = 2:

       Center              X                  Y                   Z               Mass
    ------------   -----------------  -----------------  -----------------  -----------------
         P            0.000000000000     0.000000000000     0.045059581520    30.973761998420
         H            0.000000000000     0.000000000000    -1.384828426680     1.007825032230

  Charge       = -1
  Multiplicity = 2
  Basis Set: AUG-CC-PV(Q+D)Z
    Blend: AUG-CC-PV(Q+D)Z

    Orbital Energies [Eh]
    ---------------------

    Alpha Occupied:

       1A1   -79.689568     2A1    -7.230701     1B2    -5.134135
       3A1    -5.121396     1B1    -5.121228     4A1    -0.551194
       5A1    -0.214810     2B2    -0.115870     2B1    -0.058059

    Alpha Virtual:

       6A1     0.142927     7A1     0.192060     3B2     0.204402
       3B1     0.214375     8A1     0.278715     9A1     0.302168
       4B2     0.315184     4B1     0.323863     1A2     0.329271
      10A1     0.331182    11A1     0.389358     5B2     0.418088
      12A1     0.421200     5B1     0.424838     6B2     0.559325
      13A1     0.570260     6B1     0.586605    14A1     0.619909
       7B2     0.624911     2A2     0.627192    15A1     0.627668
       8B2     0.636541     7B1     0.636716     8B1     0.647677
       3A2     0.653064    16A1     0.658704    17A1     0.702462
       9B2     0.726278     9B1     0.739812    18A1     0.805655
      19A1     0.914709    10B2     0.922610    10B1     0.933052
       4A2     0.995910    20A1     0.996719    21A1     1.092356
      22A1     1.272689    11B2     1.274325    11B1     1.296961
       5A2     1.328478    23A1     1.332305    12B2     1.417867
      12B1     1.438993    13B2     1.470769    13B1     1.470849
      24A1     1.476759     6A2     1.480430    25A1     1.480908
       7A2     1.489759    14B2     1.490559    14B1     1.491069
      26A1     1.508101    15B2     1.564555    15B1     1.599476
      27A1     1.605719    16B2     1.610745    16B1     1.631417
       8A2     1.669549    28A1     1.672469    29A1     1.828630
      17B2     1.889053    17B1     1.902722    30A1     1.988854
      18B2     2.031888    18B1     2.031914    31A1     2.112816
       9A2     2.319259    32A1     2.319362    19B2     2.340640
      19B1     2.357821    33A1     2.387916    34A1     2.589145
      10A2     2.762761    35A1     2.764057    20B2     2.815982
      20B1     2.836505    11A2     3.023098    36A1     3.023516
      21B2     3.062934    21B1     3.080749    37A1     3.123795
      22B2     3.320338    22B1     3.320379    38A1     3.324340
      12A2     3.324366    23B2     3.443390    39A1     3.455523
      23B1     3.463416    24B2     3.590955    24B1     3.590975
      40A1     3.593384    13A2     3.593385    41A1     3.637064
      25B2     3.772141    25B1     3.790725    14A2     3.822817
      42A1     3.824395    43A1     4.226738    26B2     4.419881
      26B1     4.440035    44A1     4.497864    27B2     6.108014
      27B1     6.136142    28B2     6.882020    28B1     6.882021
      45A1     7.151807    15A2     7.151909    46A1     7.264539
      29B2     7.277165    29B1     7.287520    47A1     7.495099
      48A1     7.901425    16A2     7.901428    30B2     8.105521
      30B1     8.118002    49A1     8.368666    50A1     8.559278
      31B2     8.824336    31B1     8.830491    17A2     8.849071
      51A1     8.849104    32B2     9.515503    32B1     9.520719
      52A1     9.873208    53A1    10.702056    54A1    15.611239

    Beta Occupied:

       1A1   -79.683468     2A1    -7.223350     3A1    -5.118235
       1B1    -5.115900     1B2    -5.105863     4A1    -0.479934
       5A1    -0.194829     2B1    -0.033502

    Beta Virtual:

       6A1     0.143115     2B2     0.187794     7A1     0.192521
       3B1     0.217206     8A1     0.283376     3B2     0.292973
       9A1     0.305986     4B1     0.322260     4B2     0.323632
      10A1     0.337527     1A2     0.337599    11A1     0.390671
       5B2     0.424847     5B1     0.424924    12A1     0.431496
      13A1     0.574841     6B1     0.594696     6B2     0.618119
       2A2     0.632013    14A1     0.632028    15A1     0.637080
       7B1     0.643549     7B2     0.644186     8B1     0.649044
       8B2     0.661620     3A2     0.700598    16A1     0.700968
      17A1     0.705716     9B2     0.738624     9B1     0.740789
      18A1     0.818218    19A1     0.918843    10B2     0.931366
      10B1     0.933887     4A2     0.999243    20A1     0.999455
      21A1     1.097392    22A1     1.284462    11B2     1.298463
      11B1     1.299699     5A2     1.364210    23A1     1.364333
      12B2     1.441540    12B1     1.441799    13B2     1.482234
      13B1     1.482245    24A1     1.493312     6A2     1.493325
      25A1     1.501955     7A2     1.506331    26A1     1.509482
      14B2     1.517520    14B1     1.517526    15B2     1.604688
      15B1     1.605728    27A1     1.612023    16B2     1.627889
      16B1     1.633149     8A2     1.678533    28A1     1.679296
      29A1     1.834705    17B2     1.897380    17B1     1.903982
      30A1     1.992282    18B2     2.035420    18B1     2.035424
      31A1     2.120684     9A2     2.320636    32A1     2.320680
      19B2     2.352998    19B1     2.359827    33A1     2.394758
      34A1     2.597918    10A2     2.776247    35A1     2.776394
      20B2     2.829163    20B1     2.838364    11A2     3.029981
      36A1     3.030086    21B2     3.072981    21B1     3.082580
      37A1     3.127993    38A1     3.341073    12A2     3.341120
      22B2     3.346047    22B1     3.346048    23B2     3.455031
      39A1     3.457671    23B1     3.463692    24B2     3.607609
      24B1     3.607610    40A1     3.615705    13A2     3.615705
      41A1     3.646712    25B2     3.782034    25B1     3.791825
      14A2     3.833565    42A1     3.833956    43A1     4.228774
      26B2     4.431947    26B1     4.442234    44A1     4.501340
      27B2     6.132083    27B1     6.141246    28B2     6.882667
      28B1     6.882668    45A1     7.153159    15A2     7.153219
      46A1     7.265322    29B2     7.281285    29B1     7.287793
      47A1     7.496512    16A2     7.909808    48A1     7.909819
      30B2     8.111684    30B1     8.119106    49A1     8.368290
      50A1     8.562620    31B2     8.825382    31B1     8.829870
      17A2     8.848893    51A1     8.848910    32B2     9.515988
      32B1     9.520126    52A1     9.873005    53A1    10.703662
      54A1    15.618389

    Final Occupation by Irrep:
             A1    A2    B1    B2
    DOCC [     5,    0,    2,    1 ]
    SOCC [     0,    0,    0,    1 ]

  @UHF Final Energy:  -341.29558835775828

   => Energetics <=

    Nuclear Repulsion Energy =              5.5512446530985606
    One-Electron Energy =                -487.5016250403516551
    Two-Electron Energy =                 140.6547920294948426
    Total Energy =                       -341.2955883577582767

  UHF NO Occupations:
  HONO-2 :    2 B1 1.9968402
  HONO-1 :    5 A1 1.9920503
  HONO-0 :    2 B2 1.0000000
  LUNO+0 :    6 A1 0.0079497
  LUNO+1 :    3 B1 0.0031598
  LUNO+2 :    7 A1 0.0003324
  LUNO+3 :    3 B2 0.0000020

Computation Completed

Properties will be evaluated at   0.000000,   0.000000,   0.000000 [a0]

Properties computed using the SCF density matrix

  Nuclear Dipole Moment: [e a0]
     X:     0.0000      Y:     0.0000      Z:    -1.3397

  Electronic Dipole Moment: [e a0]
     X:     0.0000      Y:     0.0000      Z:     1.2332

  Dipole Moment: [e a0]
     X:     0.0000      Y:     0.0000      Z:    -0.1065     Total:     0.1065

  Dipole Moment: [D]
     X:     0.0000      Y:     0.0000      Z:    -0.2707     Total:     0.2707

*** tstop() called on l43 at Wed Jan 20 21:19:16 2021
Module time:
	user time   =      21.12 seconds =       0.35 minutes
	system time =       5.63 seconds =       0.09 minutes
	total time  =         18 seconds =       0.30 minutes
Total time:
	user time   =      21.12 seconds =       0.35 minutes
	system time =       5.63 seconds =       0.09 minutes
	total time  =         18 seconds =       0.30 minutes

*** tstart() called on l43
*** at Wed Jan 20 21:19:16 2021

	Wfn Parameters:
	--------------------
	Wavefunction         = CCSD_T
	Number of irreps     = 4
	Number of MOs        = 135
	Number of active MOs = 130
	AO-Basis             = NONE
	Semicanonical        = false
	Reference            = UHF
	Print Level          = 1

	IRREP	# MOs	# FZDC	# DOCC	# SOCC	# VIRT	# FZVR
	-----	-----	------	------	------	------	------
	 A1	   54	    3	    2	    0	    49	    0
	 A2	   17	    0	    0	    0	    17	    0
	 B1	   32	    1	    1	    0	    30	    0
	 B2	   32	    1	    0	    1	    30	    0
	Transforming integrals...
	IWL integrals will be deleted.
	(OO|OO)...
	Presorting SO-basis two-electron integrals.
	Sorting File: SO Ints (nn|nn) nbuckets = 1
	Constructing frozen core operators
	Starting AA/AB first half-transformation.
	Sorting AA/AB half-transformed integrals.
	Starting BB first half-transformation.
	Sorting BB half-transformed integrals.
	First half integral transformation complete.
	Starting AA second half-transformation.
	Starting AB second half-transformation.
	Starting BB second half-transformation.
	Two-electron integral transformation complete.
	(OO|OV)...
	Starting AA second half-transformation.
	Starting AB second half-transformation.
	Starting BB second half-transformation.
	Two-electron integral transformation complete.
	(OO|VV)...
	Starting AA second half-transformation.
	Starting AB second half-transformation.
	Starting BB second half-transformation.
	Two-electron integral transformation complete.
	(OV|OO)...
	Starting AA/AB first half-transformation.
	Sorting AA/AB half-transformed integrals.
	Starting BB first half-transformation.
	Sorting BB half-transformed integrals.
	First half integral transformation complete.
	Starting AA second half-transformation.
	Starting AB second half-transformation.
	Starting BB second half-transformation.
	Two-electron integral transformation complete.
	(OV|OV)...
	Starting AA second half-transformation.
	Starting AB second half-transformation.
	Starting BB second half-transformation.
	Two-electron integral transformation complete.
	(OV|VV)...
	Starting AA second half-transformation.
	Starting AB second half-transformation.
	Starting BB second half-transformation.
	Two-electron integral transformation complete.
	(VV|OO)...
	Starting AA/AB first half-transformation.
	Sorting AA/AB half-transformed integrals.
	Starting BB first half-transformation.
	Sorting BB half-transformed integrals.
	First half integral transformation complete.
	Starting AA second half-transformation.
	Starting AB second half-transformation.
	Starting BB second half-transformation.
	Two-electron integral transformation complete.
	(VV|OV)...
	Starting AA second half-transformation.
	Starting AB second half-transformation.
	Starting BB second half-transformation.
	Two-electron integral transformation complete.
	(VV|VV)...
	Starting AA second half-transformation.
	Starting AB second half-transformation.
	Starting BB second half-transformation.
	Two-electron integral transformation complete.
	Frozen core energy     =   -338.06356652462784

	Size of irrep 0 of <AB|CD> integrals:      4.761 (MW) /     38.089 (MB)
	Size of irrep 1 of <AB|CD> integrals:      3.003 (MW) /     24.026 (MB)
	Size of irrep 2 of <AB|CD> integrals:      3.920 (MW) /     31.363 (MB)
	Size of irrep 3 of <AB|CD> integrals:      3.920 (MW) /     31.363 (MB)
	Total:                                    15.605 (MW) /    124.842 (MB)

	Size of irrep 0 of <ab|cd> integrals:      4.893 (MW) /     39.144 (MB)
	Size of irrep 1 of <ab|cd> integrals:      3.108 (MW) /     24.865 (MB)
	Size of irrep 2 of <ab|cd> integrals:      3.988 (MW) /     31.904 (MB)
	Size of irrep 3 of <ab|cd> integrals:      4.117 (MW) /     32.935 (MB)
	Total:                                    16.106 (MW) /    128.848 (MB)

	Size of irrep 0 of <Ab|Cd> integrals:     20.430 (MW) /    163.443 (MB)
	Size of irrep 1 of <Ab|Cd> integrals:     12.222 (MW) /     97.776 (MB)
	Size of irrep 2 of <Ab|Cd> integrals:     15.817 (MW) /    126.532 (MB)
	Size of irrep 3 of <Ab|Cd> integrals:     16.072 (MW) /    128.577 (MB)
	Total:                                    64.541 (MW) /    516.328 (MB)

	Size of irrep 0 of <IA|BC> integrals:      0.709 (MW) /      5.675 (MB)
	Size of irrep 1 of <IA|BC> integrals:      0.326 (MW) /      2.606 (MB)
	Size of irrep 2 of <IA|BC> integrals:      0.499 (MW) /      3.992 (MB)
	Size of irrep 3 of <IA|BC> integrals:      0.499 (MW) /      3.992 (MB)
	Total:                                     2.033 (MW) /     16.265 (MB)

	Size of irrep 0 of <ia|bc> integrals:      0.583 (MW) /      4.660 (MB)
	Size of irrep 1 of <ia|bc> integrals:      0.229 (MW) /      1.834 (MB)
	Size of irrep 2 of <ia|bc> integrals:      0.435 (MW) /      3.483 (MB)
	Size of irrep 3 of <ia|bc> integrals:      0.321 (MW) /      2.565 (MB)
	Total:                                     1.568 (MW) /     12.541 (MB)

	Size of irrep 0 of <Ia|Bc> integrals:      0.719 (MW) /      5.749 (MB)
	Size of irrep 1 of <Ia|Bc> integrals:      0.332 (MW) /      2.657 (MB)
	Size of irrep 2 of <Ia|Bc> integrals:      0.501 (MW) /      4.009 (MB)
	Size of irrep 3 of <Ia|Bc> integrals:      0.513 (MW) /      4.105 (MB)
	Total:                                     2.065 (MW) /     16.520 (MB)

	Size of irrep 0 of <iA|bC> integrals:      0.579 (MW) /      4.628 (MB)
	Size of irrep 1 of <iA|bC> integrals:      0.224 (MW) /      1.790 (MB)
	Size of irrep 2 of <iA|bC> integrals:      0.433 (MW) /      3.468 (MB)
	Size of irrep 3 of <iA|bC> integrals:      0.309 (MW) /      2.470 (MB)
	Total:                                     1.544 (MW) /     12.356 (MB)

	Size of irrep 0 of tIjAb amplitudes:       0.023 (MW) /      0.181 (MB)
	Size of irrep 1 of tIjAb amplitudes:       0.003 (MW) /      0.028 (MB)
	Size of irrep 2 of tIjAb amplitudes:       0.016 (MW) /      0.127 (MB)
	Size of irrep 3 of tIjAb amplitudes:       0.008 (MW) /      0.064 (MB)
	Total:                                     0.050 (MW) /      0.400 (MB)

	Nuclear Rep. energy          =      5.55124465309856
	SCF energy                   =   -341.29558835775828
	One-electron energy          =    -15.91833598998580
	Two-electron (AA) energy     =      1.83992560211496
	Two-electron (BB) energy     =      0.87692054106598
	Two-electron (AB) energy     =      4.41822336057660
	Two-electron energy          =      7.13506950375754
	Reference energy             =   -341.29558835775754

*** tstop() called on l43 at Wed Jan 20 21:19:30 2021
Module time:
	user time   =       9.74 seconds =       0.16 minutes
	system time =       4.46 seconds =       0.07 minutes
	total time  =         14 seconds =       0.23 minutes
Total time:
	user time   =      30.86 seconds =       0.51 minutes
	system time =      10.09 seconds =       0.17 minutes
	total time  =         32 seconds =       0.53 minutes
            **************************
            *                        *
            *        CCENERGY        *
            *                        *
            **************************

    Nuclear Rep. energy (wfn)     =    5.551244653098561
    SCF energy          (wfn)     = -341.295588357758277
    Reference energy    (file100) = -341.295588357757538

    Input parameters:
    -----------------
    Wave function   =     CCSD_T
    Reference wfn   =     UHF
    Brueckner       =     No
    Memory (Mbytes) =     250000.0
    Maxiter         =     50
    R_Convergence   =     1.0e-07
    E_Convergence   =     1.0e-06
    Restart         =     Yes
    DIIS            =     Yes
    AO Basis        =     NONE
    ABCD            =     NEW
    Cache Level     =     2
    Cache Type      =     LRU
    Print Level     =     1
    Num. of threads =     48
    # Amps to Print =     10
    Print MP2 Amps? =     No
    Analyze T2 Amps =     No
    Print Pair Ener =     No
    Local CC        =     No
    SCS-MP2         =     False
    SCSN-MP2        =     False
    SCS-CCSD        =     False

MP2 correlation energy -0.1553784398842500
                Solving CC Amplitude Equations
                ------------------------------
  Iter             Energy              RMS        T1Diag      D1Diag    New D1Diag    D2Diag
  ----     ---------------------    ---------   ----------  ----------  ----------   --------
     0        -0.155378439884250    0.000e+00    0.000000    0.000000    0.000000    0.000000
     1        -0.169085903900303    5.619e-02    0.012677    0.000000    0.000000    0.000000
     2        -0.175074402987593    2.146e-02    0.018756    0.000000    0.000000    0.000000
     3        -0.175727945894901    8.382e-03    0.021803    0.000000    0.000000    0.000000
     4        -0.175756146530763    3.838e-03    0.023569    0.000000    0.000000    0.000000
     5        -0.175730186563442    1.575e-03    0.024064    0.000000    0.000000    0.000000
     6        -0.175725872003936    7.207e-04    0.024271    0.000000    0.000000    0.000000
     7        -0.175730743394401    2.801e-04    0.024288    0.000000    0.000000    0.000000
     8        -0.175732487491437    1.216e-04    0.024277    0.000000    0.000000    0.000000
     9        -0.175732079457171    5.642e-05    0.024273    0.000000    0.000000    0.000000
    10        -0.175731758770353    2.501e-05    0.024268    0.000000    0.000000    0.000000
    11        -0.175731912981830    9.507e-06    0.024268    0.000000    0.000000    0.000000
    12        -0.175732108918836    3.741e-06    0.024268    0.000000    0.000000    0.000000
    13        -0.175732201710357    1.565e-06    0.024268    0.000000    0.000000    0.000000
    14        -0.175732224388304    6.088e-07    0.024268    0.000000    0.000000    0.000000
    15        -0.175732227417748    2.863e-07    0.024268    0.000000    0.000000    0.000000
    16        -0.175732226860373    1.423e-07    0.024268    0.000000    0.000000    0.000000
    17        -0.175732226609470    6.010e-08    0.024268    0.000000    0.000000    0.000000

    Iterations converged.

    Largest TIA Amplitudes:
              3  96         0.0204399382
              1   3         0.0156566789
              1   6         0.0128996479
              1   8        -0.0123326120
              3  97        -0.0102592189
              1   7        -0.0098702569
              3  98        -0.0095931216
              3 100         0.0082952957
              0   8         0.0077528495
              2  69         0.0065478005

    Largest Tia Amplitudes:
              2  66        -0.0190912512
              2  67        -0.0148882504
              0   6         0.0146934008
              2  69         0.0136966282
              0  10        -0.0133804539
              1  10         0.0126316513
              1   4        -0.0112246631
              2  71         0.0096552547
              0   7        -0.0093808293
              0   4         0.0084694720

      * MP2 total energy                      = -341.450966797641797
      * CCSD total energy                     = -341.471320584366993
      * CCSD(T) total energy                     = -341.480051437777263
*** Psi4 exiting successfully. Buy a developer a beer!
