                               Psi4 1.4a3.dev88

  ==> Input File <==

--------------------------------------------------------------------------
# Any line starting with the # character is a comment line
memory 250000 mb
molecule molecule{
-1 2
P          0.0000000000        0.0000000000        0.0450645625
H          0.0000000000        0.0000000000       -1.3848234457
}

set {
  reference uhf
  basis aug-cc-pV(5+d)Z
  scf_type OUT_OF_CORE
  freeze_core true
}

energy('ccsd(t)')
--------------------------------------------------------------------------

    Molecular point group: c2v

    Geometry (in Angstrom), charge = -1, multiplicity = 2:

       Center              X                  Y                   Z               Mass
    ------------   -----------------  -----------------  -----------------  -----------------
         P            0.000000000000     0.000000000000     0.045059581520    30.973761998420
         H            0.000000000000     0.000000000000    -1.384828426680     1.007825032230

  Charge       = -1
  Multiplicity = 2
  Basis Set: AUG-CC-PV(5+D)Z
    Blend: AUG-CC-PV(5+D)Z

    Orbital Energies [Eh]
    ---------------------

    Alpha Occupied:

       1A1   -79.689939     2A1    -7.230783     1B2    -5.134622
       1B1    -5.121691     3A1    -5.121570     4A1    -0.551496
       5A1    -0.215108     2B2    -0.116158     2B1    -0.058438

    Alpha Virtual:

       6A1     0.131724     7A1     0.181402     3B2     0.191049
       3B1     0.199691     8A1     0.248954     9A1     0.290611
       4B2     0.301127     4B1     0.308918     1A2     0.316046
      10A1     0.317735    11A1     0.351574     5B2     0.371589
       5B1     0.377265    12A1     0.397757    13A1     0.481475
       6B2     0.500866     6B1     0.524923    14A1     0.547588
       2A2     0.547849    15A1     0.556657     7B2     0.557146
       7B1     0.557582     8B2     0.575689     8B1     0.594146
      16A1     0.615700     3A2     0.625024    17A1     0.627703
       9B2     0.654300     9B1     0.667290    18A1     0.735278
      19A1     0.746430    10B2     0.788145    10B1     0.799424
       4A2     0.808832    20A1     0.809463    21A1     0.921167
      11B2     1.122463    11B1     1.122898    22A1     1.126999
       5A2     1.127005    12B2     1.149297    23A1     1.159877
      12B1     1.170749    24A1     1.193718    13B2     1.200564
       6A2     1.202942    25A1     1.211737    13B1     1.218288
      14B2     1.222478    14B1     1.223404     7A2     1.228729
      26A1     1.232691    27A1     1.248326    15B2     1.257572
      15B1     1.278760    16B2     1.290870     8A2     1.291997
      28A1     1.293730    16B1     1.319271    29A1     1.386219
      17B2     1.514129    17B1     1.525789    30A1     1.601899
      18B2     1.606268    18B1     1.606294    31A1     1.671434
       9A2     1.671463    32A1     1.673284    19B2     1.877305
      19B1     1.895304    33A1     1.914704    34A1     2.152684
      10A2     2.304559    35A1     2.304657    20B2     2.331560
      20B1     2.351595    36A1     2.412705    11A2     2.412792
      21B2     2.413858    37A1     2.420528    22B2     2.421820
      21B1     2.421820    22B1     2.436687    23B2     2.457555
      23B1     2.457638    12A2     2.473050    38A1     2.477007
      13A2     2.582622    39A1     2.582776    24B2     2.587334
      24B1     2.587824    14A2     2.606343    40A1     2.606506
      25B2     2.618545    25B1     2.637574    41A1     2.639296
      26B2     2.641484    26B1     2.643444    15A2     2.668441
      42A1     2.675801    43A1     2.733348    27B2     2.780294
      27B1     2.801741    44A1     3.017009    28B2     3.063951
      28B1     3.082203    45A1     3.116807    16A2     3.236537
      46A1     3.237360    17A2     3.369682    47A1     3.369682
      48A1     3.433498    29B2     3.514360    29B1     3.532770
      18A2     3.809657    49A1     3.809704    30B2     3.890085
      30B1     3.890095    31B2     4.010916    31B1     4.027670
      50A1     4.059125    51A1     4.213344    32B2     4.223503
      32B1     4.246386    33B2     4.559872    33B1     4.559873
      52A1     4.858015    19A2     4.861740    53A1     4.866845
      34B2     4.891548    34B1     4.891620    35B2     4.944856
      35B1     4.964214    20A2     4.968204    54A1     4.968293
      55A1     5.119224    36B2     5.168142    36B1     5.185474
      21A2     5.208008    56A1     5.209708    57A1     5.429631
      37B2     5.494845    37B1     5.494845    58A1     5.496875
      22A2     5.496875    38B2     5.500708    38B1     5.527273
      39B2     5.579472    39B1     5.580073    59A1     5.582220
      23A2     5.582223    60A1     5.640675    40B2     5.682991
      40B1     5.683084    24A2     5.699887    61A1     5.704099
      41B2     5.809932    41B1     5.827590    62A1     5.873342
      63A1     5.997597    25A2     6.192878    64A1     6.193002
      65A1     6.412757    26A2     6.509753    66A1     6.510437
      42B2     6.555264    42B1     6.568324    43B2     6.858061
      43B1     6.870960    67A1     7.582807    44B2     7.760744
      44B1     7.774253    68A1     9.304182    45B2    13.224108
      45B1    13.224108    69A1    13.405444    27A2    13.405458
      70A1    13.418990    28A2    13.418990    71A1    13.546613
      29A2    13.546642    46B2    13.566757    46B1    13.567066
      47B2    13.569535    47B1    13.574608    48B2    13.707188
      72A1    13.714322    48B1    13.719258    73A1    13.857627
      30A2    13.857640    74A1    13.910371    75A1    13.962219
      49B2    14.492831    49B1    14.497096    76A1    14.707483
      31A2    14.707502    77A1    14.777676    50B2    15.128976
      50B1    15.134191    78A1    16.200418    51B2    17.275850
      51B1    17.286425    52B2    18.358885    52B1    18.367459
      79A1    19.074746    80A1    20.336024    81A1    54.104818

    Beta Occupied:

       1A1   -79.683126     2A1    -7.223557     3A1    -5.118295
       1B1    -5.116110     1B2    -5.105402     4A1    -0.480034
       5A1    -0.195064     2B1    -0.033386

    Beta Virtual:

       6A1     0.131771     2B2     0.179007     7A1     0.181680
       3B1     0.202100     8A1     0.252109     3B2     0.281540
       9A1     0.294065     4B1     0.307335     4B2     0.308168
      10A1     0.322804     1A2     0.322904    11A1     0.352108
       5B1     0.377344     5B2     0.378170    12A1     0.406834
      13A1     0.486277     6B1     0.531835    14A1     0.550438
       2A2     0.550700     6B2     0.553309     7B1     0.561592
       7B2     0.563706    15A1     0.568565     8B1     0.594598
       8B2     0.602886    16A1     0.617733     9B1     0.668661
       3A2     0.669204     9B2     0.669598    17A1     0.669860
      18A1     0.740580    19A1     0.756519    10B2     0.800138
      10B1     0.800489     4A2     0.812286    20A1     0.812512
      21A1     0.926732    11B2     1.128409    11B1     1.128419
       5A2     1.134191    22A1     1.134192    23A1     1.167843
      12B2     1.171381    12B1     1.172999    24A1     1.210585
       6A2     1.212912    13B2     1.214450    25A1     1.217732
      13B1     1.219505    14B2     1.245068    14B1     1.245156
      26A1     1.250141     7A2     1.261078    27A1     1.261564
      15B2     1.276208    15B1     1.279918     8A2     1.303787
      28A1     1.304003    16B1     1.325996    16B2     1.328521
      29A1     1.389467    17B2     1.521568    17B1     1.526780
      18B2     1.608631    18B1     1.608635    30A1     1.609040
       9A2     1.672782    31A1     1.672895    32A1     1.678012
      19B2     1.891806    19B1     1.897510    33A1     1.917721
      34A1     2.165990    10A2     2.312038    35A1     2.312064
      20B2     2.347305    20B1     2.354163    36A1     2.421434
      11A2     2.421435    21B2     2.427609    21B1     2.432862
      22B2     2.432863    37A1     2.433299    22B1     2.439526
      23B2     2.484069    23B1     2.484072    12A2     2.490022
      38A1     2.490255    24B2     2.601126    24B1     2.601255
      39A1     2.605390    13A2     2.605414    40A1     2.619401
      14A2     2.619446    25B2     2.627041    25B1     2.637821
      41A1     2.647945    26B2     2.649121    26B1     2.649500
      15A2     2.674882    42A1     2.677660    43A1     2.735765
      27B2     2.793633    27B1     2.804107    44A1     3.021920
      28B2     3.075065    28B1     3.084257    45A1     3.120985
      16A2     3.241544    46A1     3.241907    17A2     3.372187
      47A1     3.372187    48A1     3.433586    29B2     3.523437
      29B1     3.534350    18A2     3.811629    49A1     3.811645
      30B2     3.891864    30B1     3.891867    31B2     4.022848
      31B1     4.029438    50A1     4.061515    51A1     4.215934
      32B2     4.242085    32B1     4.250501    33B2     4.563222
      33B1     4.563223    52A1     4.869340    19A2     4.870591
      53A1     4.873275    34B2     4.907140    34B1     4.907156
      35B2     4.954494    35B1     4.966321    20A2     4.974839
      54A1     4.974933    55A1     5.125973    36B2     5.175117
      36B1     5.185457    21A2     5.219497    56A1     5.220031
      57A1     5.432772    58A1     5.509442    22A2     5.509442
      37B2     5.510727    37B1     5.510728    38B2     5.515404
      38B1     5.531005    39B2     5.592041    39B1     5.592126
      59A1     5.599543    23A2     5.599544    60A1     5.649043
      40B2     5.691929    40B1     5.691950    24A2     5.707247
      61A1     5.708707    41B2     5.817822    41B1     5.828631
      62A1     5.878204    63A1     6.001696    25A2     6.194058
      64A1     6.194124    65A1     6.413955    26A2     6.516015
      66A1     6.516358    42B2     6.558943    42B1     6.568658
      43B2     6.862416    43B1     6.871368    67A1     7.584342
      44B2     7.765748    44B1     7.775102    68A1     9.305922
      45B2    13.223999    45B1    13.223999    27A2    13.413518
      69A1    13.413547    28A2    13.419098    70A1    13.419098
      71A1    13.547449    29A2    13.547466    46B2    13.567091
      46B1    13.567294    47B2    13.569893    47B1    13.574154
      72A1    13.714307    48B2    13.715014    48B1    13.720977
      73A1    13.857958    30A2    13.857958    74A1    13.912861
      75A1    13.962750    49B2    14.493394    49B1    14.496842
      76A1    14.707181    31A2    14.707196    77A1    14.777185
      50B2    15.129790    50B1    15.133857    78A1    16.200159
      51B2    17.287294    51B1    17.288383    52B2    18.366457
      52B1    18.368589    79A1    19.074356    80A1    20.338239
      81A1    54.109674

    Final Occupation by Irrep:
             A1    A2    B1    B2
    DOCC [     5,    0,    2,    1 ]
    SOCC [     0,    0,    0,    1 ]

  @UHF Final Energy:  -341.29607251366895

   => Energetics <=

    Nuclear Repulsion Energy =              5.5512446530985606
    One-Electron Energy =                -487.4998584284745675
    Two-Electron Energy =                 140.6525412617070856
    Total Energy =                       -341.2960725136689462

  UHF NO Occupations:
  HONO-2 :    2 B1 1.9966003
  HONO-1 :    5 A1 1.9920329
  HONO-0 :    2 B2 1.0000000
  LUNO+0 :    6 A1 0.0079671
  LUNO+1 :    3 B1 0.0033997
  LUNO+2 :    7 A1 0.0003342
  LUNO+3 :    3 B2 0.0000032

Computation Completed

Properties will be evaluated at   0.000000,   0.000000,   0.000000 [a0]

Properties computed using the SCF density matrix

  Nuclear Dipole Moment: [e a0]
     X:     0.0000      Y:     0.0000      Z:    -1.3397

  Electronic Dipole Moment: [e a0]
     X:     0.0000      Y:     0.0000      Z:     1.2340

  Dipole Moment: [e a0]
     X:     0.0000      Y:     0.0000      Z:    -0.1057     Total:     0.1057

  Dipole Moment: [D]
     X:     0.0000      Y:     0.0000      Z:    -0.2687     Total:     0.2687

*** tstop() called on n412-045.vsc4.prov at Fri Jan 22 04:24:48 2021
Module time:
	user time   =     162.40 seconds =       2.71 minutes
	system time =      12.43 seconds =       0.21 minutes
	total time  =        107 seconds =       1.78 minutes
Total time:
	user time   =     162.40 seconds =       2.71 minutes
	system time =      12.43 seconds =       0.21 minutes
	total time  =        107 seconds =       1.78 minutes

*** tstart() called on n412-045.vsc4.prov
*** at Fri Jan 22 04:24:48 2021

	Wfn Parameters:
	--------------------
	Wavefunction         = CCSD_T
	Number of irreps     = 4
	Number of MOs        = 216
	Number of active MOs = 211
	AO-Basis             = NONE
	Semicanonical        = false
	Reference            = UHF
	Print Level          = 1

	IRREP	# MOs	# FZDC	# DOCC	# SOCC	# VIRT	# FZVR
	-----	-----	------	------	------	------	------
	 A1	   81	    3	    2	    0	    76	    0
	 A2	   31	    0	    0	    0	    31	    0
	 B1	   52	    1	    1	    0	    50	    0
	 B2	   52	    1	    0	    1	    50	    0
	Transforming integrals...
	IWL integrals will be deleted.
	(OO|OO)...
	Presorting SO-basis two-electron integrals.
	Sorting File: SO Ints (nn|nn) nbuckets = 1
	Constructing frozen core operators
	Starting AA/AB first half-transformation.
	Sorting AA/AB half-transformed integrals.
	Starting BB first half-transformation.
	Sorting BB half-transformed integrals.
	First half integral transformation complete.
	Starting AA second half-transformation.
	Starting AB second half-transformation.
	Starting BB second half-transformation.
	Two-electron integral transformation complete.
	(OO|OV)...
	Starting AA second half-transformation.
	Starting AB second half-transformation.
	Starting BB second half-transformation.
	Two-electron integral transformation complete.
	(OO|VV)...
	Starting AA second half-transformation.
	Starting AB second half-transformation.
	Starting BB second half-transformation.
	Two-electron integral transformation complete.
	(OV|OO)...
	Starting AA/AB first half-transformation.
	Sorting AA/AB half-transformed integrals.
	Starting BB first half-transformation.
	Sorting BB half-transformed integrals.
	First half integral transformation complete.
	Starting AA second half-transformation.
	Starting AB second half-transformation.
	Starting BB second half-transformation.
	Two-electron integral transformation complete.
	(OV|OV)...
	Starting AA second half-transformation.
	Starting AB second half-transformation.
	Starting BB second half-transformation.
	Two-electron integral transformation complete.
	(OV|VV)...
	Starting AA second half-transformation.
	Starting AB second half-transformation.
	Starting BB second half-transformation.
	Two-electron integral transformation complete.
	(VV|OO)...
	Starting AA/AB first half-transformation.
	Sorting AA/AB half-transformed integrals.
	Starting BB first half-transformation.
	Sorting BB half-transformed integrals.
	First half integral transformation complete.
	Starting AA second half-transformation.
	Starting AB second half-transformation.
	Starting BB second half-transformation.
	Two-electron integral transformation complete.
	(VV|OV)...
	Starting AA second half-transformation.
	Starting AB second half-transformation.
	Starting BB second half-transformation.
	Two-electron integral transformation complete.
	(VV|VV)...
	Starting AA second half-transformation.
	Starting AB second half-transformation.
	Starting BB second half-transformation.
	Two-electron integral transformation complete.
	Frozen core energy     =   -338.06384759743236

	Size of irrep 0 of <AB|CD> integrals:     33.235 (MW) /    265.882 (MB)
	Size of irrep 1 of <AB|CD> integrals:     23.581 (MW) /    188.646 (MB)
	Size of irrep 2 of <AB|CD> integrals:     28.622 (MW) /    228.980 (MB)
	Size of irrep 3 of <AB|CD> integrals:     28.622 (MW) /    228.980 (MB)
	Total:                                   114.061 (MW) /    912.488 (MB)

	Size of irrep 0 of <ab|cd> integrals:     33.814 (MW) /    270.514 (MB)
	Size of irrep 1 of <ab|cd> integrals:     24.069 (MW) /    192.551 (MB)
	Size of irrep 2 of <ab|cd> integrals:     28.955 (MW) /    231.641 (MB)
	Size of irrep 3 of <ab|cd> integrals:     29.441 (MW) /    235.532 (MB)
	Total:                                   116.280 (MW) /    930.238 (MB)

	Size of irrep 0 of <Ab|Cd> integrals:    138.933 (MW) /   1111.467 (MB)
	Size of irrep 1 of <Ab|Cd> integrals:     95.297 (MW) /    762.373 (MB)
	Size of irrep 2 of <Ab|Cd> integrals:    115.154 (MW) /    921.235 (MB)
	Size of irrep 3 of <Ab|Cd> integrals:    116.122 (MW) /    928.977 (MB)
	Total:                                   465.507 (MW) /   3724.052 (MB)

	Size of irrep 0 of <IA|BC> integrals:      2.958 (MW) /     23.662 (MB)
	Size of irrep 1 of <IA|BC> integrals:      1.573 (MW) /     12.587 (MB)
	Size of irrep 2 of <IA|BC> integrals:      2.215 (MW) /     17.719 (MB)
	Size of irrep 3 of <IA|BC> integrals:      2.215 (MW) /     17.719 (MB)
	Total:                                     8.961 (MW) /     71.687 (MB)

	Size of irrep 0 of <ia|bc> integrals:      2.391 (MW) /     19.130 (MB)
	Size of irrep 1 of <ia|bc> integrals:      1.109 (MW) /      8.870 (MB)
	Size of irrep 2 of <ia|bc> integrals:      1.894 (MW) /     15.153 (MB)
	Size of irrep 3 of <ia|bc> integrals:      1.443 (MW) /     11.547 (MB)
	Total:                                     6.837 (MW) /     54.700 (MB)

	Size of irrep 0 of <Ia|Bc> integrals:      2.982 (MW) /     23.857 (MB)
	Size of irrep 1 of <Ia|Bc> integrals:      1.591 (MW) /     12.730 (MB)
	Size of irrep 2 of <Ia|Bc> integrals:      2.221 (MW) /     17.771 (MB)
	Size of irrep 3 of <Ia|Bc> integrals:      2.252 (MW) /     18.017 (MB)
	Total:                                     9.047 (MW) /     72.375 (MB)

	Size of irrep 0 of <iA|bC> integrals:      2.381 (MW) /     19.048 (MB)
	Size of irrep 1 of <iA|bC> integrals:      1.093 (MW) /      8.747 (MB)
	Size of irrep 2 of <iA|bC> integrals:      1.889 (MW) /     15.109 (MB)
	Size of irrep 3 of <iA|bC> integrals:      1.412 (MW) /     11.293 (MB)
	Total:                                     6.775 (MW) /     54.197 (MB)

	Size of irrep 0 of tIjAb amplitudes:       0.059 (MW) /      0.471 (MB)
	Size of irrep 1 of tIjAb amplitudes:       0.010 (MW) /      0.078 (MB)
	Size of irrep 2 of tIjAb amplitudes:       0.043 (MW) /      0.343 (MB)
	Size of irrep 3 of tIjAb amplitudes:       0.022 (MW) /      0.172 (MB)
	Total:                                     0.133 (MW) /      1.065 (MB)

	Nuclear Rep. energy          =      5.55124465309856
	SCF energy                   =   -341.29607251366895
	One-electron energy          =    -15.91725653991767
	Two-electron (AA) energy     =      1.84032335820006
	Two-electron (BB) energy     =      0.87628098904605
	Two-electron (AB) energy     =      4.41718262333450
	Two-electron energy          =      7.13378697058061
	Reference energy             =   -341.29607251367088

*** tstop() called on n412-045.vsc4.prov at Fri Jan 22 04:27:34 2021
Module time:
	user time   =      53.39 seconds =       0.89 minutes
	system time =      35.73 seconds =       0.60 minutes
	total time  =        166 seconds =       2.77 minutes
Total time:
	user time   =     215.80 seconds =       3.60 minutes
	system time =      48.16 seconds =       0.80 minutes
	total time  =        273 seconds =       4.55 minutes
            **************************
            *                        *
            *        CCENERGY        *
            *                        *
            **************************

    Nuclear Rep. energy (wfn)     =    5.551244653098561
    SCF energy          (wfn)     = -341.296072513668946
    Reference energy    (file100) = -341.296072513670879

    Input parameters:
    -----------------
    Wave function   =     CCSD_T
    Reference wfn   =     UHF
    Brueckner       =     No
    Memory (Mbytes) =     250000.0
    Maxiter         =     50
    R_Convergence   =     1.0e-07
    E_Convergence   =     1.0e-06
    Restart         =     Yes
    DIIS            =     Yes
    AO Basis        =     NONE
    ABCD            =     NEW
    Cache Level     =     2
    Cache Type      =     LRU
    Print Level     =     1
    Num. of threads =     48
    # Amps to Print =     10
    Print MP2 Amps? =     No
    Analyze T2 Amps =     No
    Print Pair Ener =     No
    Local CC        =     No

      * MP2 total energy                      = -341.455690999139676
      * CCSD total energy                     = -341.474134352708973
      * CCSD(T) total energy                     = -341.483127514006696
*** Psi4 exiting successfully. Buy a developer a beer!
