                               Psi4 1.4a3.dev88

  ==> Input File <==

--------------------------------------------------------------------------
# Any line starting with the # character is a comment line
memory 250000 mb
molecule molecule{
-1 2
P          0.0000000000        0.0000000000        0.0450645625
H          0.0000000000        0.0000000000       -1.3848234457
}

set {
  reference uhf
  basis aug-cc-pV(6+d)Z
  scf_type OUT_OF_CORE
  freeze_core true
}

energy('ccsd(t)')
--------------------------------------------------------------------------

    Molecular point group: c2v

    Geometry (in Angstrom), charge = -1, multiplicity = 2:

       Center              X                  Y                   Z               Mass
    ------------   -----------------  -----------------  -----------------  -----------------
         P            0.000000000000     0.000000000000     0.045059581520    30.973761998420
         H            0.000000000000     0.000000000000    -1.384828426680     1.007825032230

  Charge       = -1
  Multiplicity = 2
  Basis Set: AUG-CC-PV(6+D)Z
    Blend: AUG-CC-PV(6+D)Z

    Orbital Energies [Eh]
    ---------------------

    Alpha Occupied:

       1A1   -79.690362     2A1    -7.231171     1B1    -5.135015
       1B2    -5.122169     3A1    -5.121933     4A1    -0.551919
       5A1    -0.215459     2B1    -0.116509     2B2    -0.058932

    Alpha Virtual:

       6A1     0.124101     7A1     0.164068     3B1     0.170464
       3B2     0.177095     8A1     0.226401     9A1     0.275735
       4B1     0.287410     4B2     0.294309     1A2     0.301992
      10A1     0.302827    11A1     0.316754     5B1     0.338628
       5B2     0.343399    12A1     0.358989     6B1     0.412386
      13A1     0.421345     6B2     0.432283    14A1     0.479767
      15A1     0.512283     2A2     0.512467     7B1     0.522961
       7B2     0.523017     8B1     0.544786     8B2     0.561201
      16A1     0.564464     3A2     0.582971    17A1     0.583977
       9B1     0.604556     9B2     0.616972    18A1     0.647000
      19A1     0.676524     4A2     0.677679    10B1     0.678943
      20A1     0.682364    10B2     0.688903    21A1     0.794645
      11B1     0.906880    11B2     0.906940     5A2     0.912822
      22A1     0.912823    23A1     0.941143    12B1     0.963460
      13B1     0.983287    24A1     0.988663    12B2     0.990851
      13B2     0.995621     6A2     1.013200    25A1     1.015542
      14B1     1.038769    26A1     1.061675    14B2     1.062083
      27A1     1.132731     7A2     1.142161    28A1     1.144777
      15B1     1.151802    15B2     1.155546    16B1     1.162537
       8A2     1.173169    29A1     1.176574    16B2     1.179060
      17B1     1.302788    17B2     1.312577    30A1     1.342088
       9A2     1.379506    31A1     1.380376    18B1     1.413678
      18B2     1.413702    32A1     1.494169    33A1     1.564245
      19B1     1.565411    19B2     1.581396    34A1     1.753274
      35A1     1.862506    10A2     1.862506    20B1     1.867856
      20B2     1.867856    21B1     1.953996    36A1     1.965487
      11A2     1.972985    21B2     1.974538    37A1     1.980717
      22B1     1.987193    22B2     1.989770    38A1     2.001443
      12A2     2.001452    23B1     2.036146    39A1     2.044831
      23B2     2.053209    13A2     2.054382    40A1     2.064120
      24B1     2.077884    24B2     2.078562    25B1     2.099093
      25B2     2.117581    41A1     2.205551    14A2     2.211480
      42A1     2.242759    26B1     2.294178    26B2     2.294337
      15A2     2.315129    43A1     2.315812    44A1     2.335303
      27B1     2.371770    27B2     2.393556    28B1     2.435078
      28B2     2.461149    45A1     2.612543    16A2     2.619746
      46A1     2.619746    47A1     2.659105    17A2     2.659382
      29B1     2.698088    29B2     2.716170    48A1     2.736147
      18A2     2.833768    49A1     2.834466    30B1     2.906804
      30B2     2.906851    50A1     2.909136    31B1     2.949973
      31B2     2.962680    51A1     3.174370    32B1     3.433217
      32B2     3.455749    33B1     3.558577    33B2     3.558585
      52A1     3.626059    34B1     3.661979    34B2     3.661979
      19A2     3.680710    53A1     3.680710    20A2     3.757111
      54A1     3.757978    55A1     3.883007    21A2     3.883007
      35B1     3.884534    35B2     3.890344    36B1     3.899354
      36B2     3.914071    56A1     3.918259    22A2     3.918261
      57A1     3.992572    23A2     3.992622    37B1     3.993671
      37B2     3.993671    58A1     4.012677    59A1     4.047735
      24A2     4.051283    60A1     4.087482    38B1     4.097706
      38B2     4.114686    39B1     4.125056    39B2     4.132195
      61A1     4.197265    25A2     4.198598    40B1     4.259336
      40B2     4.283648    62A1     4.321311    63A1     4.445320
      26A2     4.511962    64A1     4.514448    41B1     4.550208
      41B2     4.550229    42B1     4.602582    42B2     4.614957
      65A1     4.726205    27A2     4.727220    43B1     4.765674
      43B2     4.765674    44B1     4.789703    44B2     4.810991
      66A1     4.826630    45B1     4.863908    45B2     4.863935
      28A2     4.930764    67A1     4.930991    68A1     4.983012
      69A1     5.278118    29A2     5.405163    70A1     5.405163
      46B1     5.516107    46B2     5.535475    30A2     5.602815
      71A1     5.602886    47B1     5.641794    47B2     5.651404
      72A1     5.678474    48B1     5.731674    48B2     5.731678
      73A1     5.895117    49B1     6.014489    49B2     6.031918
      31A2     6.084703    74A1     6.085285    50B1     6.767744
      50B2     6.786395    75A1     6.844269    51B1     7.125065
      51B2     7.144028    76A1     7.398023    32A2     7.398024
      52B1     7.400567    52B2     7.401512    53B1     7.419520
      53B2     7.437027    77A1     7.497312    33A2     7.506849
      78A1     7.524489    54B1     7.566951    54B2     7.566970
      34A2     7.579691    79A1     7.579694    80A1     7.604041
      35A2     7.799456    81A1     7.799456    55B1     7.808060
      55B2     7.808060    36A2     7.839547    82A1     7.839876
      37A2     8.021942    83A1     8.021942    84A1     8.166976
      56B1     8.170820    56B2     8.180491    57B1     8.180514
      57B2     8.193897    38A2     8.207754    85A1     8.207756
      58B1     8.282455    58B2     8.282618    86A1     8.381130
      39A2     8.386258    87A1     8.425907    59B1     8.697806
      59B2     8.719962    60B1     8.911342    60B2     8.911366
      88A1     9.084221    61B1     9.119124    61B2     9.136341
      89A1     9.188971    40A2     9.189072    62B1     9.344336
      62B2     9.344349    90A1     9.492913    41A2     9.553992
      91A1     9.554196    42A2     9.921833    92A1     9.921873
      93A1    10.156990    63B1    10.251489    63B2    10.251490
      64B1    10.285846    94A1    10.287973    64B2    10.299934
      65B1    10.691551    65B2    10.702787    43A2    10.703860
      95A1    10.703970    96A1    11.074074    44A2    11.136530
      97A1    11.136604    66B1    11.281061    66B2    11.290052
      98A1    12.208273    67B1    12.585908    67B2    12.597885
      99A1    13.676585    68B1    13.853885    68B2    13.858400
     100A1    15.753896    69B1    17.777843    69B2    17.777843
      45A2    17.898406   101A1    17.898406    70B1    18.019070
      70B2    18.019070   102A1    18.262142    46A2    18.262148
     103A1    18.722250    71B1    18.791424    71B2    18.796896
      47A2    20.575101   104A1    20.575101    72B1    20.882613
      72B2    20.882613   105A1    21.432278    48A2    21.432280
      73B1    21.713675    73B2    21.717473   106A1    21.827460
     107A1    22.623539    49A2    23.311374   108A1    23.311380
      74B1    24.298606    74B2    24.298606   109A1    24.543526
      75B1    24.690483    75B2    24.694225   110A1    24.893350
      50A2    24.893350    76B1    25.024016    76B2    25.027029
     111A1    25.216618    51A2    26.250915   112A1    26.250946
      77B1    26.524168    77B2    26.534530   113A1    27.266174
      78B1    27.276965    78B2    27.289480   114A1    31.295707
      79B1    35.083079    79B2    35.084836   115A1    36.659073
     116A1   214.535779

    Beta Occupied:

       1A1   -79.683541     2A1    -7.223850     3A1    -5.118636
       1B2    -5.116459     1B1    -5.105653     4A1    -0.480215
       5A1    -0.195341     2B2    -0.033203

    Beta Virtual:

       6A1     0.124066     2B1     0.163625     7A1     0.164172
       3B2     0.178929     8A1     0.228818     3B1     0.266474
       9A1     0.277236     4B1     0.292526     4B2     0.292686
      10A1     0.307209     1A2     0.307357    11A1     0.317105
       5B1     0.342559     5B2     0.343216    12A1     0.364818
      13A1     0.427854     6B2     0.437992     6B1     0.466023
      14A1     0.487484     2A2     0.514774    15A1     0.514825
       7B2     0.526526     7B1     0.526635     8B2     0.561085
       8B1     0.566701    16A1     0.568443     3A2     0.612561
      17A1     0.612653     9B2     0.618098     9B1     0.618441
      18A1     0.652831    19A1     0.683358    10B1     0.689527
      10B2     0.689551     4A2     0.692271    20A1     0.695071
      21A1     0.803295    11B2     0.909955    11B1     0.909956
       5A2     0.916832    22A1     0.916833    23A1     0.944927
      12B1     0.986325    24A1     0.991676    12B2     0.994957
      13B2     0.998704    13B1     1.004196     6A2     1.018332
      25A1     1.019590    14B2     1.065536    26A1     1.068900
      14B1     1.071213    27A1     1.143115     7A2     1.155067
      28A1     1.155518    15B1     1.174657    15B2     1.175366
      16B1     1.178497    16B2     1.179670     8A2     1.206873
      29A1     1.207099    17B1     1.307776    17B2     1.313323
      30A1     1.347918     9A2     1.382600    31A1     1.382752
      18B1     1.415704    18B2     1.415707    32A1     1.502197
      33A1     1.566431    19B1     1.577323    19B2     1.583422
      34A1     1.761702    35A1     1.868028    10A2     1.868028
      20B1     1.874748    20B2     1.874748    21B1     1.969091
      36A1     1.974749    11A2     1.978541    21B2     1.980049
      37A1     1.984091    22B1     1.995149    22B2     1.995652
      38A1     2.015925    12A2     2.015927    23B1     2.043138
      39A1     2.050746    23B2     2.053711    13A2     2.058976
      40A1     2.063985    24B1     2.084265    24B2     2.084386
      25B1     2.112662    25B2     2.119130    41A1     2.223843
      14A2     2.225207    42A1     2.246532    26B1     2.321197
      26B2     2.321201    15A2     2.332886    43A1     2.332906
      44A1     2.337384    27B1     2.387938    27B2     2.395455
      28B1     2.459714    28B2     2.465748    45A1     2.617435
      16A2     2.621927    46A1     2.621927    47A1     2.663696
      17A2     2.663782    29B1     2.708261    29B2     2.717365
      48A1     2.740731    18A2     2.837149    49A1     2.837467
      30B1     2.907742    30B2     2.907766    50A1     2.910864
      31B1     2.954148    31B2     2.963502    51A1     3.176990
      32B1     3.447439    32B2     3.459104    33B1     3.563945
      33B2     3.563946    52A1     3.633484    34B1     3.669363
      34B2     3.669363    19A2     3.690037    53A1     3.690037
      20A2     3.765188    54A1     3.765498    55A1     3.895289
      21A2     3.895289    35B1     3.898944    35B2     3.904398
      36B1     3.908312    36B2     3.914506    56A1     3.931061
      22A2     3.931062    57A1     4.002885    23A2     4.002896
      37B1     4.007425    37B2     4.007425    58A1     4.019450
      59A1     4.055019    24A2     4.056778    60A1     4.089260
      38B1     4.108348    38B2     4.121345    39B1     4.130705
      39B2     4.133703    61A1     4.205027    25A2     4.205709
      40B1     4.266993    40B2     4.284894    62A1     4.325424
      63A1     4.451833    26A2     4.522349    64A1     4.523160
      41B1     4.566409    41B2     4.566412    42B1     4.606556
      42B2     4.615197    65A1     4.733319    27A2     4.733767
      43B1     4.767552    43B2     4.767552    44B1     4.800711
      44B2     4.812693    66A1     4.831791    45B1     4.869273
      45B2     4.869277    28A2     4.935558    67A1     4.935631
      68A1     4.983892    69A1     5.281127    29A2     5.407567
      70A1     5.407567    46B1     5.527102    46B2     5.537103
      30A2     5.604359    71A1     5.604395    47B1     5.644528
      47B2     5.651563    72A1     5.681934    48B1     5.732890
      48B2     5.732892    73A1     5.896433    49B1     6.019852
      49B2     6.033073    31A2     6.090087    74A1     6.090396
      50B1     6.779833    50B2     6.789074    75A1     6.845939
      51B1     7.135470    51B2     7.145810    52B1     7.410842
      76A1     7.410873    32A2     7.410873    52B2     7.411279
      53B1     7.425670    53B2     7.438126    77A1     7.505875
      33A2     7.511799    78A1     7.525769    54B1     7.571383
      54B2     7.571392    34A2     7.582670    79A1     7.582671
      80A1     7.606088    35A2     7.811278    81A1     7.811278
      55B1     7.817704    55B2     7.817704    36A2     7.844869
      82A1     7.845029    37A2     8.028674    83A1     8.028674
      84A1     8.170530    56B1     8.177985    56B2     8.193565
      57B1     8.193594    57B2     8.194655    38A2     8.217175
      85A1     8.217176    58B1     8.289546    58B2     8.289601
      86A1     8.388585    39A2     8.391525    87A1     8.427076
      59B1     8.706416    59B2     8.721934    60B1     8.915471
      60B2     8.915480    88A1     9.086656    61B1     9.124757
      61B2     9.137490    89A1     9.193608    40A2     9.193647
      62B1     9.350543    62B2     9.350548    90A1     9.495635
      41A2     9.562097    91A1     9.562181    42A2     9.922694
      92A1     9.922721    93A1    10.160371    63B1    10.251868
      63B2    10.251868    94A1    10.288782    64B1    10.291782
      64B2    10.300967    65B1    10.693925    65B2    10.702820
      43A2    10.706611    95A1    10.706689    96A1    11.076326
      44A2    11.137190    97A1    11.137240    66B1    11.282920
      66B2    11.290204    98A1    12.208755    67B1    12.588970
      67B2    12.598389    99A1    13.680124    68B1    13.853727
      68B2    13.857695   100A1    15.754049    69B1    17.777943
      69B2    17.777943   101A1    17.898585    45A2    17.898585
      70B1    18.019275    70B2    18.019275   102A1    18.262422
      46A2    18.262427   103A1    18.722496    71B1    18.791960
      71B2    18.796749   104A1    20.574987    47A2    20.574987
      72B1    20.882585    72B2    20.882585   105A1    21.432242
      48A2    21.432244    73B1    21.713968    73B2    21.717205
     106A1    21.827355   107A1    22.622896    49A2    23.310987
     108A1    23.310991    74B1    24.298317    74B2    24.298317
     109A1    24.543221    75B1    24.690836    75B2    24.693853
     110A1    24.893051    50A2    24.893051    76B1    25.023928
      76B2    25.026624   111A1    25.216692    51A2    26.260664
     112A1    26.260701    77B1    26.534602    77B2    26.537069
     113A1    27.269576    78B1    27.290858    78B2    27.292558
     114A1    31.297497    79B1    35.082579    79B2    35.084200
     115A1    36.658568   116A1   214.538467

    Final Occupation by Irrep:
             A1    A2    B1    B2
    DOCC [     5,    0,    1,    2 ]
    SOCC [     0,    0,    1,    0 ]

  @UHF Final Energy:  -341.29621699551780

   => Energetics <=

    Nuclear Repulsion Energy =              5.5512446530985606
    One-Electron Energy =                -487.4945548577587715
    Two-Electron Energy =                 140.6470932091424118
    Total Energy =                       -341.2962169955178524

  UHF NO Occupations:
  HONO-2 :    2 B2 1.9962436
  HONO-1 :    5 A1 1.9920240
  HONO-0 :    2 B1 1.0000000
  LUNO+0 :    6 A1 0.0079760
  LUNO+1 :    3 B2 0.0037564
  LUNO+2 :    7 A1 0.0003352
  LUNO+3 :    3 B1 0.0000034

Computation Completed

Properties will be evaluated at   0.000000,   0.000000,   0.000000 [a0]

Properties computed using the SCF density matrix

  Nuclear Dipole Moment: [e a0]
     X:     0.0000      Y:     0.0000      Z:    -1.3397

  Electronic Dipole Moment: [e a0]
     X:     0.0000      Y:     0.0000      Z:     1.2336

  Dipole Moment: [e a0]
     X:     0.0000      Y:     0.0000      Z:    -0.1061     Total:     0.1061

  Dipole Moment: [D]
     X:     0.0000      Y:     0.0000      Z:    -0.2696     Total:     0.2696

*** tstop() called on n412-047.vsc4.prov at Sun Jan 24 01:48:01 2021
Module time:
	user time   =     550.16 seconds =       9.17 minutes
	system time =      40.51 seconds =       0.68 minutes
	total time  =        582 seconds =       9.70 minutes
Total time:
	user time   =     550.16 seconds =       9.17 minutes
	system time =      40.51 seconds =       0.68 minutes
	total time  =        582 seconds =       9.70 minutes

*** tstart() called on n412-047.vsc4.prov
*** at Sun Jan 24 01:48:01 2021

	Wfn Parameters:
	--------------------
	Wavefunction         = CCSD_T
	Number of irreps     = 4
	Number of MOs        = 325
	Number of active MOs = 320
	AO-Basis             = NONE
	Semicanonical        = false
	Reference            = UHF
	Print Level          = 1

	IRREP	# MOs	# FZDC	# DOCC	# SOCC	# VIRT	# FZVR
	-----	-----	------	------	------	------	------
	 A1	   116	    3	    2	    0	    111	    0
	 A2	   51	    0	    0	    0	    51	    0
	 B1	   79	    1	    0	    1	    77	    0
	 B2	   79	    1	    1	    0	    77	    0
	Transforming integrals...
	IWL integrals will be deleted.
	(OO|OO)...
	Presorting SO-basis two-electron integrals.
	Sorting File: SO Ints (nn|nn) nbuckets = 1
	Constructing frozen core operators
	Starting AA/AB first half-transformation.
	Sorting AA/AB half-transformed integrals.
	Starting BB first half-transformation.
	Sorting BB half-transformed integrals.
	First half integral transformation complete.
	Starting AA second half-transformation.
	Starting AB second half-transformation.
	Starting BB second half-transformation.
	Two-electron integral transformation complete.
	(OO|OV)...
	Starting AA second half-transformation.
	Starting AB second half-transformation.
	Starting BB second half-transformation.
	Two-electron integral transformation complete.
	(OO|VV)...
	Starting AA second half-transformation.
	Starting AB second half-transformation.
	Starting BB second half-transformation.
	Two-electron integral transformation complete.
	(OV|OO)...
	Starting AA/AB first half-transformation.
	Sorting AA/AB half-transformed integrals.
	Starting BB first half-transformation.
	Sorting BB half-transformed integrals.
	First half integral transformation complete.
	Starting AA second half-transformation.
	Starting AB second half-transformation.
	Starting BB second half-transformation.
	Two-electron integral transformation complete.
	(OV|OV)...
	Starting AA second half-transformation.
	Starting AB second half-transformation.
	Starting BB second half-transformation.
	Two-electron integral transformation complete.
	(OV|VV)...
	Starting AA second half-transformation.
	Starting AB second half-transformation.
	Starting BB second half-transformation.
	Two-electron integral transformation complete.
	(VV|OO)...
	Starting AA/AB first half-transformation.
	Sorting AA/AB half-transformed integrals.
	Starting BB first half-transformation.
	Sorting BB half-transformed integrals.
	First half integral transformation complete.
	Starting AA second half-transformation.
	Starting AB second half-transformation.
	Starting BB second half-transformation.
	Two-electron integral transformation complete.
	(VV|OV)...
	Starting AA second half-transformation.
	Starting AB second half-transformation.
	Starting BB second half-transformation.
	Two-electron integral transformation complete.
	(VV|VV)...
	Starting AA second half-transformation.
	Starting AB second half-transformation.
	Starting BB second half-transformation.
	Two-electron integral transformation complete.
	Frozen core energy     =   -338.06390325044288

	Size of irrep 0 of <AB|CD> integrals:    175.086 (MW) /   1400.687 (MB)
	Size of irrep 1 of <AB|CD> integrals:    134.328 (MW) /   1074.625 (MB)
	Size of irrep 2 of <AB|CD> integrals:    155.601 (MW) /   1244.805 (MB)
	Size of irrep 3 of <AB|CD> integrals:    155.601 (MW) /   1244.805 (MB)
	Total:                                   620.615 (MW) /   4964.922 (MB)

	Size of irrep 0 of <ab|cd> integrals:    177.129 (MW) /   1417.036 (MB)
	Size of irrep 1 of <ab|cd> integrals:    136.119 (MW) /   1088.951 (MB)
	Size of irrep 2 of <ab|cd> integrals:    158.382 (MW) /   1267.058 (MB)
	Size of irrep 3 of <ab|cd> integrals:    156.876 (MW) /   1255.005 (MB)
	Total:                                   628.506 (MW) /   5028.050 (MB)

	Size of irrep 0 of <Ab|Cd> integrals:    721.298 (MW) /   5770.388 (MB)
	Size of irrep 1 of <Ab|Cd> integrals:    540.888 (MW) /   4327.104 (MB)
	Size of irrep 2 of <Ab|Cd> integrals:    627.953 (MW) /   5023.628 (MB)
	Size of irrep 3 of <Ab|Cd> integrals:    624.950 (MW) /   4999.600 (MB)
	Total:                                  2515.090 (MW) /  20120.720 (MB)

	Size of irrep 0 of <IA|BC> integrals:     10.069 (MW) /     80.554 (MB)
	Size of irrep 1 of <IA|BC> integrals:      5.934 (MW) /     47.473 (MB)
	Size of irrep 2 of <IA|BC> integrals:      7.884 (MW) /     63.069 (MB)
	Size of irrep 3 of <IA|BC> integrals:      7.884 (MW) /     63.069 (MB)
	Total:                                    31.770 (MW) /    254.164 (MB)

	Size of irrep 0 of <ia|bc> integrals:      8.054 (MW) /     64.429 (MB)

      * MP2 total energy                      = -341.457772531290630
      * CCSD total energy                     = -341.475183523603732
      * CCSD(T) total energy                     = -341.484276345580668
*** Psi4 exiting successfully. Buy a developer a beer!
