                               Psi4 1.2a1.dev939

  ==> Input File <==

--------------------------------------------------------------------------
# Any line starting with the # character is a comment line
memory 250000 mb
molecule molecule{
1 2
S          0.0000000000        0.0000000000       -0.0550235194
H          0.0000000000        0.9811489408        0.8750788892
H          0.0000000000       -0.9811489408        0.8750788892
}

set {
  reference uhf
  basis aug-cc-pv(5+d)z
  scf_type OUT_OF_CORE
  freeze_core true
}

energy('ccsd')
--------------------------------------------------------------------------

    Molecular point group: c2v

    Geometry (in Angstrom), charge = 1, multiplicity = 2:

       Center              X                  Y                   Z               Mass
    ------------   -----------------  -----------------  -----------------  -----------------
           S         -0.000000000000     0.000000000000    -0.055159949561    31.972070999000
           H         -0.000000000000     0.981148940800     0.874942459039     1.007825032070
           H          0.000000000000    -0.981148940800     0.874942459039     1.007825032070

  Charge       = 1
  Multiplicity = 2
  Basis Set: AUG-CC-PV(5+D)Z
    Blend: AUG-CC-PV(5+D)Z

    Orbital Energies (a.u.)
    -----------------------

    Alpha Occupied:

       1A1   -92.365250     2A1    -9.362781     1B1    -7.059928
       1B2    -7.039992     3A1    -7.038517     4A1    -1.363941
       2B2    -0.920776     5A1    -0.842581     2B1    -0.807225

    Alpha Virtual:

       6A1    -0.143741     3B2    -0.132560     4B2    -0.086955
       7A1    -0.080559     3B1    -0.078607     8A1    -0.073198
       9A1    -0.037482     1A2    -0.036032    10A1    -0.032651
       4B1    -0.031319     5B2    -0.025674     6B2     0.037430
      11A1     0.055316     5B1     0.068857     7B2     0.073826
      12A1     0.074000     2A2     0.080543    13A1     0.085004
       8B2     0.094457     9B2     0.137689    14A1     0.139176
       6B1     0.145791    15A1     0.165723    16A1     0.167168
       3A2     0.168812     7B1     0.175803     8B1     0.238288
      17A1     0.299827    10B2     0.308056    11B2     0.328184
      18A1     0.335179     9B1     0.341740    12B2     0.346911
       4A2     0.350553    19A1     0.373712    13B2     0.376486
      14B2     0.396324     5A2     0.399522    20A1     0.401297
      10B1     0.402484     6A2     0.433613    11B1     0.438458
      21A1     0.440826    22A1     0.445129    15B2     0.501940
      23A1     0.540953    16B2     0.548911    24A1     0.728202
      12B1     0.751552    17B2     0.756515     7A2     0.788072
      25A1     0.793378    13B1     0.810531    26A1     0.824573
      18B2     0.842274     8A2     0.857704    14B1     0.878581
      27A1     0.888664    15B1     0.905771    28A1     0.927906
      19B2     0.945734    29A1     0.957758    20B2     0.959794
       9A2     0.968449    16B1     0.977410    30A1     0.978452
      10A2     0.995367    17B1     1.006512    21B2     1.007559
      31A1     1.052817    22B2     1.066220    18B1     1.097804
      32A1     1.127828    23B2     1.130055    11A2     1.134494
      19B1     1.147432    33A1     1.157356    12A2     1.163084
      34A1     1.195967    24B2     1.224445    35A1     1.247144
      20B1     1.256856    25B2     1.267678    26B2     1.270379
      36A1     1.352090    13A2     1.386998    14A2     1.464749
      27B2     1.486767    37A1     1.487807    28B2     1.545133
      21B1     1.555090    38A1     1.579702    29B2     1.678003
      30B2     1.961731    15A2     1.968235    39A1     1.987049
      22B1     2.017405    16A2     2.035241    40A1     2.037756
      23B1     2.041113    41A1     2.107380    24B1     2.165336
      42A1     2.166977    17A2     2.168496    31B2     2.189240
      43A1     2.195243    25B1     2.252535    32B2     2.278876
      44A1     2.325597    26B1     2.351899    33B2     2.363787
      45A1     2.408420    34B2     2.414765    18A2     2.445593
      46A1     2.450736    19A2     2.495636    47A1     2.497910
      35B2     2.498914    27B1     2.511250    28B1     2.545821
      36B2     2.575627    20A2     2.603609    48A1     2.634302
      37B2     2.655564    49A1     2.683570    29B1     2.699917
      30B1     2.746673    50A1     2.793495    31B1     2.812970
      38B2     2.815730    51A1     2.860138    21A2     2.900211
      52A1     2.916743    39B2     2.936574    22A2     2.959337
      32B1     2.979447    53A1     3.010024    40B2     3.045458
      23A2     3.071078    41B2     3.100198    54A1     3.170518
      55A1     3.238380    24A2     3.296871    33B1     3.306151
      34B1     3.322469    42B2     3.329790    43B2     3.354120
      35B1     3.407257    56A1     3.413001    25A2     3.463745
      44B2     3.478179    57A1     3.534503    45B2     3.551680
      26A2     3.697180    46B2     3.720581    36B1     3.737396
      58A1     3.741240    47B2     3.909498    27A2     3.935019
      59A1     3.939918    37B1     4.012656    60A1     4.019008
      48B2     4.078947    28A2     4.186422    61A1     4.363915
      49B2     4.400939    38B1     4.452539    50B2     4.813965
      62A1     4.818043    29A2     4.831960    39B1     4.849593
      40B1     4.937004    30A2     4.998287    51B2     5.010805
      63A1     5.032272    52B2     5.096187    64A1     5.098432
      53B2     5.140513    41B1     5.155992    65A1     5.199227
      31A2     5.235748    42B1     5.263431    66A1     5.347139
      54B2     5.417682    67A1     5.537941    68A1     5.613461
      55B2     5.660580    43B1     5.664430    32A2     5.670101
      69A1     5.721874    33A2     5.729039    44B1     5.742670
      56B2     5.801704    57B2     5.815094    70A1     5.815384
      34A2     5.824565    45B1     5.859536    71A1     5.884219
      72A1     5.951823    35A2     5.991029    46B1     5.994376
      73A1     6.040850    58B2     6.097608    47B1     6.113462
      74A1     6.121563    59B2     6.169841    60B2     6.464530
      75A1     6.485753    48B1     6.486698    49B1     6.519157
      61B2     6.540495    36A2     6.614574    76A1     6.681836
      37A2     6.785766    77A1     6.832191    50B1     6.852788
      38A2     6.853884    62B2     6.962999    63B2     6.989575
      78A1     7.018919    64B2     7.620528    79A1     7.623512
      51B1     7.708833    39A2     7.874495    80A1     7.922205
      65B2     8.114387    66B2     9.278668    81A1     9.498101
      82A1    12.697972    40A2    12.707866    52B1    12.714909
      67B2    12.797222    83A1    12.833063    53B1    12.846574
      41A2    12.852401    68B2    12.900493    69B2    12.939836
      54B1    12.967547    84A1    12.972288    42A2    12.995411
      55B1    13.025069    70B2    13.091259    85A1    13.091493
      43A2    13.180961    86A1    13.211411    44A2    13.226550
      56B1    13.244504    71B2    13.357737    72B2    13.441368
      87A1    13.515229    45A2    13.545928    57B1    13.622331
      73B2    13.627327    88A1    13.688975    74B2    13.711871
      89A1    13.944040    58B1    13.986828    46A2    14.015880
      75B2    14.091963    59B1    14.109507    90A1    14.118051
      47A2    14.175445    91A1    14.194899    76B2    14.198435
      92A1    14.395531    77B2    14.499312    60B1    14.783888
      48A2    14.797187    93A1    14.804869    78B2    15.306379
      94A1    16.220046    79B2    16.220411    95A1    16.357850
      49A2    16.430141    61B1    16.436643    96A1    16.852668
      62B1    17.260006    80B2    17.446668    50A2    17.514639
      81B2    17.677794    97A1    17.714605    98A1    18.713442
      82B2    18.866944    63B1    25.507815    99A1    27.947479
      83B2    28.632239   100A1    74.739293

    Beta Occupied:

       1A1   -92.353951     2A1    -9.351312     3A1    -7.033053
       1B2    -7.032799     1B1    -7.013382     4A1    -1.270704
       2B2    -0.910568     5A1    -0.819863

    Beta Virtual:

       2B1    -0.298645     6A1    -0.136065     3B2    -0.128638
       4B2    -0.086616     7A1    -0.077358     3B1    -0.066967
       8A1    -0.053887     9A1    -0.036530     5B2    -0.024599
      10A1    -0.022052     1A2    -0.018675     4B1    -0.015045
       6B2     0.037352    11A1     0.060243     7B2     0.073731
      12A1     0.075592     5B1     0.079202     2A2     0.082692
      13A1     0.095972     8B2     0.096331     9B2     0.139462
      14A1     0.142903    15A1     0.168734     6B1     0.171436
      16A1     0.186508     3A2     0.205561     7B1     0.210914
       8B1     0.240853    10B2     0.310729    17A1     0.312148
      11B2     0.327941    18A1     0.337586    12B2     0.348527
       9B1     0.350752     4A2     0.357029    13B2     0.376897
      19A1     0.377001    14B2     0.398226     5A2     0.402664
      10B1     0.405319    20A1     0.410349     6A2     0.442012
      21A1     0.445068    11B1     0.448749    22A1     0.451649
      15B2     0.503669    23A1     0.550462    16B2     0.551227
      24A1     0.730234    17B2     0.758544    12B1     0.785463
      25A1     0.800305     7A2     0.801096    13B1     0.838681
      18B2     0.847872    26A1     0.849631     8A2     0.879845
      14B1     0.891859    27A1     0.897897    15B1     0.930981
      28A1     0.934878    19B2     0.949731    29A1     0.963085
      20B2     0.963858     9A2     0.978151    30A1     0.982490
      16B1     0.987931    10A2     0.998954    17B1     1.009356
      21B2     1.013107    31A1     1.057788    22B2     1.071047
      18B1     1.101439    32A1     1.129765    23B2     1.131335
      11A2     1.139867    19B1     1.154039    12A2     1.163460
      33A1     1.164906    34A1     1.199924    24B2     1.227821
      35A1     1.253299    20B1     1.258776    25B2     1.268378
      26B2     1.270467    36A1     1.355077    13A2     1.388502
      14A2     1.471930    27B2     1.488358    37A1     1.489415
      28B2     1.548096    21B1     1.580328    38A1     1.582593
      29B2     1.680191    30B2     1.962177    15A2     1.972478
      39A1     1.990059    22B1     2.022453    16A2     2.042747
      23B1     2.050782    40A1     2.054234    41A1     2.111086
      42A1     2.178736    24B1     2.182045    17A2     2.182841
      43A1     2.201711    31B2     2.204854    25B1     2.274818
      32B2     2.284009    44A1     2.349667    33B2     2.369725
      26B1     2.383246    34B2     2.420725    45A1     2.422434
      18A2     2.462047    46A1     2.462451    47A1     2.509541
      19A2     2.509562    35B2     2.511866    27B1     2.526267
      28B1     2.555772    36B2     2.576944    20A2     2.614276
      48A1     2.641433    37B2     2.663924    49A1     2.687928
      29B1     2.711258    30B1     2.754310    50A1     2.795099
      38B2     2.818715    31B1     2.819138    51A1     2.865472
      21A2     2.902982    52A1     2.921954    39B2     2.942553
      22A2     2.968408    32B1     2.984642    53A1     3.012296
      40B2     3.047459    23A2     3.071972    41B2     3.102005
      54A1     3.172047    55A1     3.239480    24A2     3.301999
      33B1     3.312537    34B1     3.324117    42B2     3.331360
      43B2     3.355577    35B1     3.410541    56A1     3.415323
      25A2     3.467525    44B2     3.480474    57A1     3.537736
      45B2     3.552976    26A2     3.698408    46B2     3.722664
      58A1     3.743153    36B1     3.759647    47B2     3.912104
      59A1     3.941336    27A2     3.944671    60A1     4.023691
      37B1     4.035693    48B2     4.082298    28A2     4.189534
      61A1     4.366648    49B2     4.402441    38B1     4.455675
      50B2     4.818699    62A1     4.825242    29A2     4.837856
      39B1     4.862477    40B1     4.946426    30A2     5.001490
      51B2     5.013828    63A1     5.035189    52B2     5.107417
      64A1     5.115346    53B2     5.141856    41B1     5.176611
      65A1     5.204776    31A2     5.248218    42B1     5.271526
      66A1     5.352613    54B2     5.424084    67A1     5.541028
      68A1     5.617895    55B2     5.662375    43B1     5.670579
      32A2     5.674193    69A1     5.733730    33A2     5.736776
      44B1     5.759870    56B2     5.810456    57B2     5.825510
      70A1     5.832117    34A2     5.843289    45B1     5.868114
      71A1     5.897254    72A1     5.960319    35A2     6.002555
      46B1     6.008656    73A1     6.054041    58B2     6.106008
      47B1     6.128081    74A1     6.130987    59B2     6.174443
      60B2     6.472191    75A1     6.493555    48B1     6.496878
      49B1     6.532538    61B2     6.546067    36A2     6.625787
      76A1     6.690428    37A2     6.793372    77A1     6.834276
      50B1     6.859541    38A2     6.861521    62B2     6.966470
      63B2     6.990761    78A1     7.021013    64B2     7.624423
      79A1     7.626369    51B1     7.720023    39A2     7.883102
      80A1     7.923347    65B2     8.116197    66B2     9.280367
      81A1     9.502193    82A1    12.697375    40A2    12.707122
      52B1    12.714372    67B2    12.796452    83A1    12.832673
      53B1    12.846189    41A2    12.852035    68B2    12.900040
      69B2    12.939742    54B1    12.967432    84A1    12.971905
      42A2    12.995256    55B1    13.025095    70B2    13.090942
      85A1    13.091363    43A2    13.180805    86A1    13.210782
      44A2    13.226877    56B1    13.244841    71B2    13.357440
      72B2    13.440078    87A1    13.515096    45A2    13.545890
      57B1    13.622223    73B2    13.626903    88A1    13.688465
      74B2    13.711405    89A1    13.943171    58B1    13.986558
      46A2    14.015349    75B2    14.090966    59B1    14.108437
      90A1    14.117086    47A2    14.174610    91A1    14.193770
      76B2    14.196816    92A1    14.394209    77B2    14.498349
      60B1    14.785323    48A2    14.798371    93A1    14.803970
      78B2    15.305789    79B2    16.220042    94A1    16.232174
      95A1    16.362263    49A2    16.443676    61B1    16.449571
      96A1    16.855339    62B1    17.259421    80B2    17.448488
      50A2    17.513616    81B2    17.676942    97A1    17.713124
      98A1    18.712614    82B2    18.865934    63B1    25.539861
      99A1    27.951248    83B2    28.637423   100A1    74.746280

    Final Occupation by Irrep:
             A1    A2    B1    B2
    DOCC [     5,    0,    1,    2 ]
    SOCC [     0,    0,    1,    0 ]

  Energy converged.

  @UHF Final Energy:  -398.38173702274469

   => Energetics <=

    Nuclear Repulsion Energy =             12.7951256667447364
    One-Electron Energy =                -569.7671022997751606
    Two-Electron Energy =                 158.5902396102857494
    Total Energy =                       -398.3817370227446872

  UHF NO Occupations:
  HONO-2 :    2 B2 1.9991791
  HONO-1 :    5 A1 1.9929708
  HONO-0 :    2 B1 1.0000000
  LUNO+0 :    6 A1 0.0070292
  LUNO+1 :    3 B2 0.0008209
  LUNO+2 :    7 A1 0.0004769
  LUNO+3 :    3 B1 0.0000050

Properties will be evaluated at   0.000000,   0.000000,   0.000000 Bohr

Properties computed using the SCF density matrix

  Nuclear Dipole Moment: (a.u.)
     X:     0.0000      Y:     0.0000      Z:     1.6390

  Electronic Dipole Moment: (a.u.)
     X:     0.0000      Y:     0.0000      Z:    -0.9879

  Dipole Moment: (a.u.)
     X:     0.0000      Y:     0.0000      Z:     0.6511     Total:     0.6511

  Dipole Moment: (Debye)
     X:     0.0000      Y:     0.0000      Z:     1.6548     Total:     1.6548

*** tstop() called on n412-019.vsc4.prov at Fri Oct 30 15:53:59 2020
Module time:
	user time   =     406.12 seconds =       6.77 minutes
	system time =      26.70 seconds =       0.45 minutes
	total time  =        227 seconds =       3.78 minutes
Total time:
	user time   =     406.12 seconds =       6.77 minutes
	system time =      26.70 seconds =       0.45 minutes
	total time  =        227 seconds =       3.78 minutes

*** tstart() called on n412-019.vsc4.prov
*** at Fri Oct 30 15:53:59 2020

	Wfn Parameters:
	--------------------
	Wavefunction         = CCSD
	Number of irreps     = 4
	Number of MOs        = 296
	Number of active MOs = 291
	AO-Basis             = NONE
	Semicanonical        = false
	Reference            = UHF
	Print Level          = 1

	IRREP	# MOs	# FZDC	# DOCC	# SOCC	# VIRT	# FZVR
	-----	-----	------	------	------	------	------
	 A1	   100	    3	    2	    0	    95	    0
	 A2	   50	    0	    0	    0	    50	    0
	 B1	   63	    1	    0	    1	    61	    0
	 B2	   83	    1	    1	    0	    81	    0
	Transforming integrals...
	IWL integrals will be deleted.
	(OO|OO)...
	Presorting SO-basis two-electron integrals.
	Sorting File: SO Ints (nn|nn) nbuckets = 1
	Transforming the one-electron integrals and constructing Fock matrices
	Starting AA/AB first half-transformation.
	Sorting AA/AB half-transformed integrals.
	Starting BB first half-transformation.
	Sorting BB half-transformed integrals.
	First half integral transformation complete.
	Starting AA second half-transformation.
	Starting AB second half-transformation.
	Starting BB second half-transformation.
	Two-electron integral transformation complete.
	(OO|OV)...
	Starting AA second half-transformation.
	Starting AB second half-transformation.
	Starting BB second half-transformation.
	Two-electron integral transformation complete.
	(OO|VV)...
	Starting AA second half-transformation.
	Starting AB second half-transformation.
	Starting BB second half-transformation.
	Two-electron integral transformation complete.
	(OV|OO)...
	Starting AA/AB first half-transformation.
	Sorting AA/AB half-transformed integrals.
	Starting BB first half-transformation.
	Sorting BB half-transformed integrals.
	First half integral transformation complete.
	Starting AA second half-transformation.
	Starting AB second half-transformation.
	Starting BB second half-transformation.
	Two-electron integral transformation complete.
	(OV|OV)...
	Starting AA second half-transformation.
	Starting AB second half-transformation.
	Starting BB second half-transformation.
	Two-electron integral transformation complete.
	(OV|VV)...
	Starting AA second half-transformation.
	Starting AB second half-transformation.
	Starting BB second half-transformation.
	Two-electron integral transformation complete.
	(VV|OO)...
	Starting AA/AB first half-transformation.
	Sorting AA/AB half-transformed integrals.
	Starting BB first half-transformation.
	Sorting BB half-transformed integrals.
	First half integral transformation complete.
	Starting AA second half-transformation.
	Starting AB second half-transformation.
	Starting BB second half-transformation.
	Two-electron integral transformation complete.
	(VV|OV)...
	Starting AA second half-transformation.
	Starting AB second half-transformation.
	Starting BB second half-transformation.
	Two-electron integral transformation complete.
	(VV|VV)...
	Starting AA second half-transformation.
	Starting AB second half-transformation.
	Starting BB second half-transformation.
	Two-electron integral transformation complete.
	Frozen core energy     =   -395.38233845276801

	Size of irrep 0 of <AB|CD> integrals:    115.778 (MW) /    926.221 (MB)
	Size of irrep 1 of <AB|CD> integrals:     93.915 (MW) /    751.324 (MB)
	Size of irrep 2 of <AB|CD> integrals:     96.924 (MW) /    775.392 (MB)
	Size of irrep 3 of <AB|CD> integrals:    115.455 (MW) /    923.640 (MB)
	Total:                                   422.072 (MW) /   3376.577 (MB)

	Size of irrep 0 of <ab|cd> integrals:    117.094 (MW) /    936.752 (MB)
	Size of irrep 1 of <ab|cd> integrals:     95.492 (MW) /    763.936 (MB)
	Size of irrep 2 of <ab|cd> integrals:     98.804 (MW) /    790.429 (MB)
	Size of irrep 3 of <ab|cd> integrals:    116.532 (MW) /    932.256 (MB)
	Total:                                   427.922 (MW) /   3423.373 (MB)

	Size of irrep 0 of <Ab|Cd> integrals:    478.209 (MW) /   3825.675 (MB)
	Size of irrep 1 of <Ab|Cd> integrals:    378.808 (MW) /   3030.467 (MB)
	Size of irrep 2 of <Ab|Cd> integrals:    391.446 (MW) /   3131.570 (MB)
	Size of irrep 3 of <Ab|Cd> integrals:    463.972 (MW) /   3711.773 (MB)
	Total:                                  1712.436 (MW) /  13699.485 (MB)

	Size of irrep 0 of <IA|BC> integrals:      7.240 (MW) /     57.919 (MB)
	Size of irrep 1 of <IA|BC> integrals:      4.690 (MW) /     37.524 (MB)
	Size of irrep 2 of <IA|BC> integrals:      5.257 (MW) /     42.058 (MB)
	Size of irrep 3 of <IA|BC> integrals:      6.597 (MW) /     52.779 (MB)
	Total:                                    23.785 (MW) /    190.280 (MB)

	Size of irrep 0 of <ia|bc> integrals:      5.943 (MW) /     47.544 (MB)
	Size of irrep 1 of <ia|bc> integrals:      3.166 (MW) /     25.329 (MB)
	Size of irrep 2 of <ia|bc> integrals:      3.459 (MW) /     27.673 (MB)
	Size of irrep 3 of <ia|bc> integrals:      5.549 (MW) /     44.389 (MB)
	Total:                                    18.117 (MW) /    144.935 (MB)

	Size of irrep 0 of <Ia|Bc> integrals:      7.282 (MW) /     58.256 (MB)
	Size of irrep 1 of <Ia|Bc> integrals:      4.730 (MW) /     37.836 (MB)
	Size of irrep 2 of <Ia|Bc> integrals:      5.322 (MW) /     42.577 (MB)
	Size of irrep 3 of <Ia|Bc> integrals:      6.613 (MW) /     52.902 (MB)
	Total:                                    23.946 (MW) /    191.572 (MB)

	Size of irrep 0 of <iA|bC> integrals:      5.926 (MW) /     47.410 (MB)
	Size of irrep 1 of <iA|bC> integrals:      3.134 (MW) /     25.068 (MB)
	Size of irrep 2 of <iA|bC> integrals:      3.403 (MW) /     27.224 (MB)
	Size of irrep 3 of <iA|bC> integrals:      5.536 (MW) /     44.286 (MB)
	Total:                                    17.999 (MW) /    143.989 (MB)

	Size of irrep 0 of tIjAb amplitudes:       0.109 (MW) /      0.875 (MB)
	Size of irrep 1 of tIjAb amplitudes:       0.019 (MW) /      0.156 (MB)

      * MP2 total energy                      = -398.548974230064971
      * CCSD total energy                     = -398.572361216142269
*** Psi4 exiting successfully. Buy a developer a beer!
