                               Psi4 1.2a1.dev939

  ==> Input File <==

--------------------------------------------------------------------------
# Any line starting with the # character is a comment line

memory 250000 mb

molecule molecule {
0 1
C         -0.0131849130        0.0000000000       -0.7300158634
O          0.0640939097        0.0000000000        0.6915053898
H         -0.5186806976       -0.8893140541       -1.1100627930
H         -0.5186806976        0.8893140541       -1.1100627930
H          1.0094357309        0.0000000000       -1.0953577182
H         -0.8323439031        0.0000000000        1.0381148124
}

set {
  reference rhf

  basis aug-cc-pv(6+d)z
  scf_type OUT_OF_CORE
  freeze_core true
}

energy('ccsd')
--------------------------------------------------------------------------

    Molecular point group: cs

    Geometry (in Angstrom), charge = 0, multiplicity = 1:

       Center              X                  Y                   Z               Mass
    ------------   -----------------  -----------------  -----------------  -----------------
           C          0.013183553268    -0.730177928595     0.000000000000    12.000000000000
           O         -0.064095269432     0.691343324605     0.000000000000    15.994914619560
           H          0.518679337868    -1.110224858195    -0.889314054100     1.007825032070
           H          0.518679337868    -1.110224858195     0.889314054100     1.007825032070
           H         -1.009437090632    -1.095519783395     0.000000000000     1.007825032070
           H          0.832342543368     1.037952747205     0.000000000000     1.007825032070

  Charge       = 0
  Multiplicity = 1
  Basis Set: AUG-CC-PV(6+D)Z
    Blend: AUG-CC-PV(6+D)Z

    Orbital Energies (a.u.)
    -----------------------

    Doubly Occupied:

       1Ap   -20.555643     2Ap   -11.269774     3Ap    -1.355442
       4Ap    -0.926088     5Ap    -0.690503     1App   -0.620797
       6Ap    -0.592635     7Ap    -0.505084     2App   -0.452470

  @RHF Final Energy:  -115.10160998743042

   => Energetics <=

    Nuclear Repulsion Energy =             40.2957125804724043
    One-Electron Energy =                -236.8577749195375191
    Two-Electron Energy =                  81.4604523516346859
    Total Energy =                       -115.1016099874304217
      * MP2 total energy                      = -115.580179575287787
      * CCSD total energy                     = -115.588358538299659
*** Psi4 exiting successfully. Buy a developer a beer!
