                               Psi4 1.4a3.dev88

  ==> Input File <==

--------------------------------------------------------------------------
# Any line starting with the # character is a comment line
memory 250000 mb
molecule molecule{
0 1
O         -0.0631131193        0.0000000000       -1.1364191151
H          0.8724867027        0.0000000000       -1.3867383703
Cl         0.0036769186        0.0000000000        0.5522740830
}

set {
  reference rhf
  basis aug-cc-pV(6+d)Z
  scf_type OUT_OF_CORE
  freeze_core true
  DOCC [    10,    3 ]
}

energy('ccsd(t)')
--------------------------------------------------------------------------

    Molecular point group: cs

    Geometry (in Angstrom), charge = 0, multiplicity = 1:

       Center              X                  Y                   Z               Mass
    ------------   -----------------  -----------------  -----------------  -----------------
         O            0.063082383462    -1.131375488370     0.000000000000    15.994914619570
         H           -0.872517438538    -1.381694743570     0.000000000000     1.007825032230
         CL          -0.003707654438     0.557317709730     0.000000000000    34.968852682000

  Charge       = 0
  Multiplicity = 1
  Basis Set: AUG-CC-PV(6+D)Z
    Blend: AUG-CC-PV(6+D)Z

    Orbital Energies [Eh]
    ---------------------

    Doubly Occupied:

       1Ap  -104.889686     2Ap   -20.640938     3Ap   -10.610071
       4Ap    -8.077102     5Ap    -8.074829     1App   -8.074685
       6Ap    -1.412181     7Ap    -1.060843     8Ap    -0.721063
       2App   -0.614233     9Ap    -0.604848    10Ap    -0.468483
       3App   -0.444310

  @RHF Final Energy:  -534.93445620093803

   => Energetics <=

    Nuclear Repulsion Energy =             51.1893069346071030
    One-Electron Energy =                -840.8609866541418114
    Two-Electron Energy =                 254.7372235185966645
    Total Energy =                       -534.9344562009380297

  Dipole Moment: [D]
     X:    -1.5851      Y:    -0.3397      Z:     0.0000     Total:     1.6211

      * MP2 total energy                      = -535.438534484244542
      * CCSD total energy                     = -535.446685842144689
      * CCSD(T) total energy                  = -535.469752060502742
*** Psi4 exiting successfully. Buy a developer a beer!
