                               Psi4 1.4a3.dev88

  ==> Input File <==

--------------------------------------------------------------------------
# Any line starting with the # character is a comment line
memory 250000 mb
molecule molecule{
0 1
O         -0.0631131193        0.0000000000       -1.1364191151
H          0.8724867027        0.0000000000       -1.3867383703
Cl         0.0036769186        0.0000000000        0.5522740830
}

set {
  reference rhf
  basis aug-cc-pV(d+d)Z
  scf_type OUT_OF_CORE
  freeze_core true
  DOCC [    10,    3 ]
}

energy('ccsd(t)')
--------------------------------------------------------------------------

    Molecular point group: cs

    Geometry (in Angstrom), charge = 0, multiplicity = 1:

       Center              X                  Y                   Z               Mass
    ------------   -----------------  -----------------  -----------------  -----------------
         O            0.063082383462    -1.131375488370     0.000000000000    15.994914619570
         H           -0.872517438538    -1.381694743570     0.000000000000     1.007825032230
         CL          -0.003707654438     0.557317709730     0.000000000000    34.968852682000

  Charge       = 0
  Multiplicity = 1
  Basis Set: AUG-CC-PV(D+D)Z
    Blend: AUG-CC-PV(D+D)Z

    Orbital Energies [Eh]
    ---------------------

    Doubly Occupied:

       1Ap  -104.891714     2Ap   -20.656008     3Ap   -10.612382
       4Ap    -8.080750     5Ap    -8.075766     1App   -8.075508
       6Ap    -1.418720     7Ap    -1.064203     8Ap    -0.723478
       2App   -0.614305     9Ap    -0.606844    10Ap    -0.469664
       3App   -0.444691

  @RHF Final Energy:  -534.88988389669203

   => Energetics <=

    Nuclear Repulsion Energy =             51.1893069346071030
    One-Electron Energy =                -840.6903142602919843
    Two-Electron Energy =                 254.6111234289928404
    Total Energy =                       -534.8898838966920266

  Dipole Moment: [D]
     X:    -1.6060      Y:    -0.3570      Z:     0.0000     Total:     1.6452

      * MP2 total energy                      = -535.249848457521352
      * CCSD total energy                     = -535.269273057459600
      * CCSD(T) total energy                  = -535.281311156811284
*** Psi4 exiting successfully. Buy a developer a beer!
