                               Psi4 1.4a3.dev88

  ==> Input File <==

--------------------------------------------------------------------------
# Any line starting with the # character is a comment line
memory 250000 mb
molecule molecule{
0 1
O         -0.0631131193        0.0000000000       -1.1364191151
H          0.8724867027        0.0000000000       -1.3867383703
Cl         0.0036769186        0.0000000000        0.5522740830
}

set {
  reference rhf
  basis aug-cc-pv(q+d)z
  scf_type OUT_OF_CORE
  freeze_core true
}

energy('ccsd(t)')
--------------------------------------------------------------------------

    Molecular point group: cs

    Geometry (in Angstrom), charge = 0, multiplicity = 1:

       Center              X                  Y                   Z               Mass
    ------------   -----------------  -----------------  -----------------  -----------------
         O            0.063082383462    -1.131375488370     0.000000000000    15.994914619570
         H           -0.872517438538    -1.381694743570     0.000000000000     1.007825032230
         CL          -0.003707654438     0.557317709730     0.000000000000    34.968852682000

  Charge       = 0
  Multiplicity = 1
  Basis Set: AUG-CC-PV(Q+D)Z
    Blend: AUG-CC-PV(Q+D)Z

    Orbital Energies [Eh]
    ---------------------

    Doubly Occupied:

       1Ap  -104.890144     2Ap   -20.641878     3Ap   -10.610306
       4Ap    -8.077711     5Ap    -8.074853     1App   -8.074699
       6Ap    -1.412536     7Ap    -1.060982     8Ap    -0.721173
       2App   -0.614281     9Ap    -0.604914    10Ap    -0.468495
       3App   -0.444302

  @RHF Final Energy:  -534.93224629000940

   => Energetics <=

    Nuclear Repulsion Energy =             51.1893069346071030
    One-Electron Energy =                -840.8505611590352373
    Two-Electron Energy =                 254.7290079344187745
    Total Energy =                       -534.9322462900094024

  Dipole Moment: [D]
     X:    -1.5854      Y:    -0.3413      Z:     0.0000     Total:     1.6217

      * MP2 total energy                      = -535.415365445696466
      * CCSD total energy                     = -535.430048311459473
      * CCSD(T) total energy                  = -535.452033816888388
*** Psi4 exiting successfully. Buy a developer a beer!
