                               Psi4 1.4a3.dev88

  ==> Input File <==

--------------------------------------------------------------------------
# Any line starting with the # character is a comment line
memory 250000 mb
molecule molecule{
0 1
O         -0.0631131193        0.0000000000       -1.1364191151
H          0.8724867027        0.0000000000       -1.3867383703
Cl         0.0036769186        0.0000000000        0.5522740830
}

set {
  reference rhf
  basis aug-cc-pV(t+d)Z
  scf_type OUT_OF_CORE
  freeze_core true
  DOCC [    10,    3 ]
}

energy('ccsd(t)')
--------------------------------------------------------------------------

    Molecular point group: cs

    Geometry (in Angstrom), charge = 0, multiplicity = 1:

       Center              X                  Y                   Z               Mass
    ------------   -----------------  -----------------  -----------------  -----------------
         O            0.063082383462    -1.131375488370     0.000000000000    15.994914619570
         H           -0.872517438538    -1.381694743570     0.000000000000     1.007825032230
         CL          -0.003707654438     0.557317709730     0.000000000000    34.968852682000

  Charge       = 0
  Multiplicity = 1
  Basis Set: AUG-CC-PV(T+D)Z
    Blend: AUG-CC-PV(T+D)Z

    Orbital Energies [Eh]
    ---------------------

    Doubly Occupied:

       1Ap  -104.892229     2Ap   -20.644968     3Ap   -10.611292
       4Ap    -8.078609     5Ap    -8.075411     1App   -8.075251
       6Ap    -1.413593     7Ap    -1.061522     8Ap    -0.721444
       2App   -0.614367     9Ap    -0.605179    10Ap    -0.468666
       3App   -0.444385

  @RHF Final Energy:  -534.92370659054575

   => Energetics <=

    Nuclear Repulsion Energy =             51.1893069346071030
    One-Electron Energy =                -840.8121947933822184
    Two-Electron Energy =                 254.6991812682294380
    Total Energy =                       -534.9237065905456348

  Dipole Moment: [D]
     X:    -1.5888      Y:    -0.3421      Z:     0.0000     Total:     1.6252

      * MP2 total energy                      = -535.373414145766446
      * CCSD total energy                     = -535.392006292570727
      * CCSD(T) total energy                  = -535.411954548780272
*** Psi4 exiting successfully. Buy a developer a beer!
