                               Psi4 1.4a3.dev88

  ==> Input File <==

--------------------------------------------------------------------------
# Any line starting with the # character is a comment line
memory 250000 mb
molecule molecule{
0 3
S          0.0000000000        0.0000000000       -0.5025036822
O          0.0000000000        0.0000000000        1.0069295132
}

set {
  reference uhf
  basis aug-cc-pV(6+d)Z
  scf_type OUT_OF_CORE
  freeze_core true
}

energy('ccsd(t)')
--------------------------------------------------------------------------

    Molecular point group: c2v

    Geometry (in Angstrom), charge = 0, multiplicity = 3:

       Center              X                  Y                   Z               Mass
    ------------   -----------------  -----------------  -----------------  -----------------
         S            0.000000000000     0.000000000000    -0.503330669725    31.972071174400
         O            0.000000000000     0.000000000000     1.006102525675    15.994914619570

  Charge       = 0
  Multiplicity = 3
  Basis Set: AUG-CC-PV(6+D)Z
    Blend: AUG-CC-PV(6+D)Z

    Orbital Energies [Eh]
    ---------------------

    Alpha Occupied:

       1A1   -92.068664     2A1   -20.655022     3A1    -9.062811
       1B2    -6.752582     1B1    -6.752582     4A1    -6.737486
       5A1    -1.449654     6A1    -0.955934     2B1    -0.675348
       2B2    -0.675348     7A1    -0.640141     3B2    -0.434244
       3B1    -0.434244

    Alpha Virtual:

       8A1     0.043669     9A1     0.048544     4B2     0.057222
       4B1     0.057222    10A1     0.102491     5B1     0.104097
       5B2     0.104097    11A1     0.135931    12A1     0.161593
       1A2     0.161593    13A1     0.196761     6B2     0.205966
       6B1     0.205966    14A1     0.209823     7B2     0.241171
       7B1     0.241171    15A1     0.315874    16A1     0.378363
       2A2     0.378363    17A1     0.379417     8B1     0.403519
       8B2     0.403519    18A1     0.408907     3A2     0.408907
       9B1     0.417810     9B2     0.417810    10B2     0.437368
      10B1     0.437368    19A1     0.467905    20A1     0.474850
      11B2     0.498411    11B1     0.498411    21A1     0.507167
       4A2     0.507167    22A1     0.519851    12B2     0.609994
      12B1     0.609994    23A1     0.772898    13B1     0.822605
      13B2     0.822605     5A2     0.847976    24A1     0.847976
      25A1     0.880248    14B2     0.895832    14B1     0.895832
       6A2     0.920422    26A1     0.920422    15B2     0.967118
      15B1     0.967118    27A1     0.974991     7A2     0.983608
      28A1     0.983608    29A1     0.994247    16B1     1.010052
      16B2     1.010052    17B1     1.010381    17B2     1.010381
      30A1     1.022165    31A1     1.023833     8A2     1.023833
      32A1     1.078906     9A2     1.078906    18B1     1.107966
      18B2     1.107966    19B2     1.119645    19B1     1.119645
      33A1     1.146996    20B1     1.188435    20B2     1.188435
      34A1     1.245072    21B2     1.375850    21B1     1.375850
      35A1     1.527917    36A1     1.528964    10A2     1.528964
      37A1     1.827622    22B1     1.837509    22B2     1.837509
      38A1     1.882392    11A2     1.882392    23B1     1.925575
      23B2     1.925575    39A1     1.933651    40A1     1.977078
      24B1     2.004571    24B2     2.004571    41A1     2.060566
      12A2     2.060566    42A1     2.073218    13A2     2.073218
      25B2     2.115073    25B1     2.115073    26B1     2.118999
      26B2     2.118999    43A1     2.202486    14A2     2.202486
      27B2     2.220736    27B1     2.220736    44A1     2.241375
      15A2     2.253441    45A1     2.253441    46A1     2.267510
      47A1     2.307529    16A2     2.307529    48A1     2.352438
      17A2     2.352438    28B2     2.355770    28B1     2.355770
      29B1     2.368238    29B2     2.368238    30B1     2.400290
      30B2     2.400290    31B2     2.445616    31B1     2.445616
      32B2     2.600599    32B1     2.600599    49A1     2.610201
      50A1     2.663119    51A1     2.668689    18A2     2.668689
      33B1     2.852939    33B2     2.852939    52A1     2.887767
      19A2     2.887767    34B1     2.922317    34B2     2.922317
      53A1     3.009567    35B1     3.160603    35B2     3.160603
      54A1     3.241093    36B1     3.425965    36B2     3.425965
      55A1     3.442652    20A2     3.560307    56A1     3.560307
      57A1     3.698911    37B2     3.992746    37B1     3.992746
      38B2     4.061461    38B1     4.061461    21A2     4.062902
      58A1     4.062902    59A1     4.085841    60A1     4.118871
      22A2     4.118871    39B1     4.226619    39B2     4.226619
      23A2     4.291659    61A1     4.291659    24A2     4.327543
      62A1     4.327543    40B1     4.349441    40B2     4.349441
      63A1     4.373706    25A2     4.373706    41B1     4.437619
      41B2     4.437619    64A1     4.442778    42B2     4.521682
      42B1     4.521682    26A2     4.536297    65A1     4.536297
      43B2     4.607908    43B1     4.607908    44B2     4.642576
      44B1     4.642576    66A1     4.706705    45B1     4.716891
      45B2     4.716891    27A2     4.722730    67A1     4.722730
      68A1     4.852807    46B2     4.885810    46B1     4.885810
      47B1     5.040007    47B2     5.040007    28A2     5.071872
      69A1     5.071872    29A2     5.198209    70A1     5.198209
      71A1     5.253276    30A2     5.295158    72A1     5.295158
      48B1     5.398031    48B2     5.398031    73A1     5.531236
      31A2     5.541138    74A1     5.541138    49B2     5.573641
      49B1     5.573641    50B1     5.641768    50B2     5.641768
      51B2     5.739331    51B1     5.739331    52B1     5.775327
      52B2     5.775327    32A2     5.815879    75A1     5.815879
      76A1     5.868098    33A2     6.082235    77A1     6.082235
      78A1     6.125317    53B1     6.263832    53B2     6.263832
      54B1     6.428605    54B2     6.428605    79A1     6.430245
      34A2     6.446056    80A1     6.446056    55B1     6.877726
      55B2     6.877726    81A1     7.045779    82A1     7.378802
      35A2     7.664805    83A1     7.664805    56B1     7.716433
      56B2     7.716433    57B2     7.808878    57B1     7.808878
      84A1     8.197408    36A2     8.598027    85A1     8.598027
      37A2     8.629770    86A1     8.629770    58B1     8.648017
      58B2     8.648017    59B1     8.756499    59B2     8.756499
      87A1     8.773305    38A2     8.796202    88A1     8.796202
      60B1     8.824739    60B2     8.824739    39A2     8.833669
      89A1     8.833669    61B1     8.846845    61B2     8.846845
      62B2     8.903290    62B1     8.903290    90A1     8.986106
      40A2     9.203278    91A1     9.203278    63B1     9.215543
      63B2     9.215543    41A2     9.251504    92A1     9.251504
      64B1     9.370346    64B2     9.370346    93A1     9.374875
      42A2     9.374875    65B2     9.442893    65B1     9.442893
      94A1     9.497790    66B2     9.606872    66B1     9.606872
      43A2     9.882512    95A1     9.882512    96A1     9.910505
      97A1     9.940618    44A2     9.940618    67B2    10.406562
      67B1    10.406562    98A1    10.565222    45A2    10.626869
      99A1    10.626869    68B2    10.628413    68B1    10.628413
      69B1    10.668680    69B2    10.668680    46A2    10.765718
     100A1    10.765718    70B2    10.841349    70B1    10.841349
      71B2    11.057451    71B1    11.057451   101A1    11.117677
      47A2    11.117677   102A1    11.297471    72B1    11.541835
      72B2    11.541835   103A1    11.564655    48A2    11.564655
      73B1    11.580912    73B2    11.580912   104A1    11.749482
     105A1    11.858871    74B1    11.969858    74B2    11.969858
     106A1    12.073550    49A2    12.073550   107A1    12.216160
      75B1    12.454723    75B2    12.454723    76B1    12.744710
      76B2    12.744710    50A2    13.026965   108A1    13.026965
      51A2    13.325570   109A1    13.325570    77B2    13.412996
      77B1    13.412996   110A1    13.821798   111A1    13.969829
      52A2    13.969829    78B1    14.313600    78B2    14.313600
      79B1    14.743044    79B2    14.743044   112A1    15.249432
     113A1    15.320914    53A2    15.320914   114A1    15.685770
      80B1    16.615668    80B2    16.615668   115A1    17.241563
     116A1    21.735200   117A1    22.720290    54A2    22.720290
      81B2    22.747587    81B1    22.747587    55A2    22.918724
     118A1    22.918724    82B1    23.178167    82B2    23.178167
      83B2    23.289753    83B1    23.289753   119A1    23.488445
      56A2    23.488445   120A1    23.517204    84B1    23.567144
      84B2    23.567144   121A1    24.837744    85B1    26.804388
      85B2    26.804388    57A2    26.926251   122A1    26.926251
      86B1    27.153888    86B2    27.153888   123A1    27.216548
      58A2    27.216548   124A1    27.361182    87B1    27.365095
      87B2    27.365095    88B1    28.542062    88B2    28.542062
     125A1    29.017643    59A2    29.017643   126A1    29.873696
      89B1    30.018259    89B2    30.018259    90B1    30.417152
      90B2    30.417152    60A2    30.735217   127A1    30.735217
     128A1    31.479676    61A2    31.479676    91B2    31.479954
      91B1    31.479954   129A1    31.668685    92B2    31.688441
      92B1    31.688441   130A1    32.194764    62A2    32.194764
      93B1    32.262239    93B2    32.262239   131A1    32.460701
     132A1    34.922481    63A2    34.922481   133A1    35.108426
      94B1    35.848504    94B2    35.848505   134A1    37.266791
     135A1   103.071745   136A1   248.287287

    Beta Occupied:

       1A1   -92.055305     2A1   -20.611838     3A1    -9.049511
       4A1    -6.734299     1B1    -6.718777     1B2    -6.718777
       5A1    -1.342500     6A1    -0.805579     7A1    -0.571809
       2B2    -0.491178     2B1    -0.491178

    Beta Virtual:

       3B2     0.025073     3B1     0.025073     8A1     0.046208
       9A1     0.049599     4B1     0.068270     4B2     0.068270
      10A1     0.103622     5B2     0.107926     5B1     0.107926
      11A1     0.148345     1A2     0.170287    12A1     0.170287
      13A1     0.200351     6B2     0.211236     6B1     0.211236
      14A1     0.218672     7B1     0.262147     7B2     0.262147
      15A1     0.328709    16A1     0.381853     2A2     0.385383
      17A1     0.385383     8B2     0.416161     8B1     0.416161
       9B2     0.421446     9B1     0.421446     3A2     0.446535
      18A1     0.446535    10B2     0.468137    10B1     0.468137
      19A1     0.474663    20A1     0.479177    11B2     0.501830
      11B1     0.501830     4A2     0.523502    21A1     0.523502
      22A1     0.530866    12B2     0.637445    12B1     0.637445
      23A1     0.787397    13B2     0.822177    13B1     0.822177
      24A1     0.851737     5A2     0.851737    25A1     0.882011
       6A2     0.927437    26A1     0.927437    14B1     0.934380
      14B2     0.934380    15B2     0.977572    15B1     0.977572
      27A1     0.978404     7A2     0.998583    28A1     0.998583
      29A1     1.005560    16B2     1.014685    16B1     1.014685
      17B2     1.016869    17B1     1.016869    30A1     1.031388
       8A2     1.060833    31A1     1.060833     9A2     1.093021
      32A1     1.093021    18B2     1.126588    18B1     1.126588
      19B2     1.130132    19B1     1.130132    33A1     1.157474
      20B2     1.231527    20B1     1.231527    34A1     1.264618
      21B2     1.389557    21B1     1.389557    35A1     1.539685
      10A2     1.547736    36A1     1.547736    37A1     1.845302
      22B2     1.848813    22B1     1.848813    11A2     1.883997
      38A1     1.883997    23B1     1.932978    23B2     1.932978
      39A1     1.946551    40A1     1.986421    24B2     2.007163
      24B1     2.007163    41A1     2.079609    12A2     2.079609
      13A2     2.082377    42A1     2.082377    25B2     2.123428
      25B1     2.123428    26B2     2.129368    26B1     2.129368
      14A2     2.220745    43A1     2.220745    27B2     2.224383
      27B1     2.224383    44A1     2.244644    15A2     2.260979
      45A1     2.260979    46A1     2.272964    16A2     2.309806
      47A1     2.309806    17A2     2.373221    48A1     2.373221
      28B2     2.379045    28B1     2.379045    29B2     2.386146
      29B1     2.386146    30B2     2.431445    30B1     2.431445
      31B2     2.485225    31B1     2.485225    32B2     2.608924
      32B1     2.608924    49A1     2.616468    50A1     2.673921
      18A2     2.682599    51A1     2.682599    33B2     2.857986
      33B1     2.857986    19A2     2.931352    52A1     2.931352
      34B2     2.964605    34B1     2.964605    53A1     3.031807
      35B2     3.182528    35B1     3.182528    54A1     3.253316
      36B2     3.434478    36B1     3.434478    55A1     3.461389
      20A2     3.573327    56A1     3.573327    57A1     3.715544
      37B2     3.998633    37B1     3.998633    21A2     4.075104
      58A1     4.075104    38B2     4.081442    38B1     4.081442
      59A1     4.094816    60A1     4.119952    22A2     4.119952
      39B2     4.235663    39B1     4.235663    23A2     4.323756
      61A1     4.323756    24A2     4.337925    62A1     4.337925
      40B1     4.370312    40B2     4.370312    63A1     4.389527
      25A2     4.389527    41B2     4.454957    41B1     4.454957
      64A1     4.457048    42B2     4.534450    42B1     4.534450
      26A2     4.548638    65A1     4.548638    43B2     4.611342
      43B1     4.611342    44B2     4.647833    44B1     4.647833
      66A1     4.717015    45B2     4.726364    45B1     4.726364
      27A2     4.732876    67A1     4.732876    68A1     4.858943
      46B2     4.901654    46B1     4.901654    47B2     5.070985
      47B1     5.070985    28A2     5.092374    69A1     5.092374
      29A2     5.202178    70A1     5.202178    71A1     5.265563
      30A2     5.306357    72A1     5.306357    48B2     5.416989
      48B1     5.416989    73A1     5.541703    31A2     5.552726
      74A1     5.552726    49B2     5.584779    49B1     5.584779
      50B1     5.646056    50B2     5.646056    51B2     5.756591
      51B1     5.756591    52B2     5.794106    52B1     5.794106
      32A2     5.840310    75A1     5.840310    76A1     5.880466
      33A2     6.120646    77A1     6.120646    78A1     6.138924
      53B2     6.288860    53B1     6.288860    54B2     6.437164
      54B1     6.437164    79A1     6.448069    34A2     6.463487
      80A1     6.463487    55B1     6.908870    55B2     6.908870
      81A1     7.061642    82A1     7.392544    35A2     7.687215
      83A1     7.687215    56B2     7.744545    56B1     7.744545
      57B2     7.824280    57B1     7.824280    84A1     8.216484
      36A2     8.622734    85A1     8.622734    37A2     8.633984
      86A1     8.633984    58B2     8.659043    58B1     8.659043
      59B2     8.777416    59B1     8.777416    87A1     8.779075
      38A2     8.804073    88A1     8.804073    60B2     8.833982
      60B1     8.833982    89A1     8.854334    39A2     8.854334
      61B1     8.861928    61B2     8.861928    62B2     8.910552
      62B1     8.910552    90A1     8.998799    40A2     9.214073
      91A1     9.214073    63B1     9.239727    63B2     9.239727
      41A2     9.269999    92A1     9.269999    93A1     9.380049
      42A2     9.380049    64B2     9.385277    64B1     9.385277
      65B2     9.446858    65B1     9.446858    94A1     9.509444
      66B2     9.622280    66B1     9.622280    43A2     9.895282
      95A1     9.895282    96A1     9.917565    97A1     9.945484
      44A2     9.945484    67B2    10.421274    67B1    10.421274
      98A1    10.573905    68B2    10.635223    68B1    10.635223
      45A2    10.637331    99A1    10.637331    69B2    10.680785
      69B1    10.680785    46A2    10.780131   100A1    10.780131
      70B2    10.855265    70B1    10.855265    71B2    11.063405
      71B1    11.063405   101A1    11.128492    47A2    11.128492
     102A1    11.307249    72B1    11.548820    72B2    11.548820
      48A2    11.571798   103A1    11.571798    73B1    11.591812
      73B2    11.591812   104A1    11.762338   105A1    11.865278
      74B1    11.977320    74B2    11.977320    49A2    12.085041
     106A1    12.085041   107A1    12.229676    75B1    12.496986
      75B2    12.496986    76B1    12.757086    76B2    12.757086
      50A2    13.056654   108A1    13.056654    51A2    13.350757
     109A1    13.350757    77B2    13.435463    77B1    13.435463
     110A1    13.836552   111A1    14.003999    52A2    14.003999
      78B1    14.332000    78B2    14.332000    79B1    14.763532
      79B2    14.763532   112A1    15.268798    53A2    15.356409
     113A1    15.356409   114A1    15.697700    80B1    16.637390
      80B2    16.637390   115A1    17.254577   116A1    21.761387
     117A1    22.737136    54A2    22.737136    81B2    22.761661
      81B1    22.761661    55A2    22.930658   118A1    22.930658
      82B1    23.213841    82B2    23.213841    83B2    23.299955
      83B1    23.299955   119A1    23.497259    56A2    23.497259
     120A1    23.525081    84B1    23.575619    84B2    23.575619
     121A1    24.854832    85B1    26.830657    85B2    26.830657
      57A2    26.947951   122A1    26.947951    86B1    27.171984
      86B2    27.171984   123A1    27.232020    58A2    27.232020
     124A1    27.374321    87B1    27.378819    87B2    27.378819
      88B1    28.581179    88B2    28.581179   125A1    29.046365
      59A2    29.046365   126A1    29.891052    89B1    30.039863
      89B2    30.039863    90B1    30.434869    90B2    30.434869
      60A2    30.755098   127A1    30.755098    91B2    31.492563
      91B1    31.492563   128A1    31.512806    61A2    31.512806
     129A1    31.676909    92B2    31.714881    92B1    31.714881
     130A1    32.216789    62A2    32.216789    93B1    32.281263
      93B2    32.281263   131A1    32.478438   132A1    34.956201
      63A2    34.956201   133A1    35.118406    94B1    35.869430
      94B2    35.869430   134A1    37.276543   135A1   103.083151
     136A1   248.292460

    Final Occupation by Irrep:
             A1    A2    B1    B2
    DOCC [     7,    0,    2,    2 ]
    SOCC [     0,    0,    1,    1 ]

  @UHF Final Energy:  -472.41844193208141

   => Energetics <=

    Nuclear Repulsion Energy =             44.8742502630666706
    One-Electron Energy =                -741.7005702265668106
    Two-Electron Energy =                 224.4078780314187611
    Total Energy =                       -472.4184419320814072

  UHF NO Occupations:
  HONO-2 :    2 B1 1.9885322
  HONO-1 :    3 B1 1.0000000
  HONO-0 :    3 B2 1.0000000
  LUNO+0 :    4 B1 0.0114678
  LUNO+1 :    4 B2 0.0114677
  LUNO+2 :    8 A1 0.0069298
  LUNO+3 :    9 A1 0.0012136

Computation Completed

Properties will be evaluated at   0.000000,   0.000000,   0.000000 [a0]

Properties computed using the SCF density matrix

  Nuclear Dipole Moment: [e a0]
     X:     0.0000      Y:     0.0000      Z:    -0.0084

  Electronic Dipole Moment: [e a0]
     X:     0.0000      Y:     0.0000      Z:    -0.7560

  Dipole Moment: [e a0]
     X:     0.0000      Y:     0.0000      Z:    -0.7644     Total:     0.7644

  Dipole Moment: [D]
     X:     0.0000      Y:     0.0000      Z:    -1.9429     Total:     1.9429

*** tstop() called on n412-047.vsc4.prov at Mon Jan 25 07:42:47 2021
Module time:
	user time   =    1176.80 seconds =      19.61 minutes
	system time =     102.61 seconds =       1.71 minutes
	total time  =       1348 seconds =      22.47 minutes
Total time:
	user time   =    1176.80 seconds =      19.61 minutes
	system time =     102.61 seconds =       1.71 minutes
	total time  =       1348 seconds =      22.47 minutes

*** tstart() called on n412-047.vsc4.prov
*** at Mon Jan 25 07:42:47 2021

	Wfn Parameters:
	--------------------
	Wavefunction         = CCSD_T
	Number of irreps     = 4
	Number of MOs        = 387
	Number of active MOs = 381
	AO-Basis             = NONE
	Semicanonical        = false
	Reference            = UHF
	Print Level          = 1

	IRREP	# MOs	# FZDC	# DOCC	# SOCC	# VIRT	# FZVR
	-----	-----	------	------	------	------	------
	 A1	   136	    4	    3	    0	    129	    0
	 A2	   63	    0	    0	    0	    63	    0
	 B1	   94	    1	    1	    1	    91	    0
	 B2	   94	    1	    1	    1	    91	    0
	Transforming integrals...
	IWL integrals will be deleted.
	(OO|OO)...
	Presorting SO-basis two-electron integrals.
	Sorting File: SO Ints (nn|nn) nbuckets = 1
	Constructing frozen core operators
	Starting AA/AB first half-transformation.
	Sorting AA/AB half-transformed integrals.
	Starting BB first half-transformation.
	Sorting BB half-transformed integrals.
	First half integral transformation complete.
	Starting AA second half-transformation.
	Starting AB second half-transformation.
	Starting BB second half-transformation.
	Two-electron integral transformation complete.
	(OO|OV)...
	Starting AA second half-transformation.
	Starting AB second half-transformation.
	Starting BB second half-transformation.
	Two-electron integral transformation complete.
	(OO|VV)...
	Starting AA second half-transformation.
	Starting AB second half-transformation.
	Starting BB second half-transformation.
	Two-electron integral transformation complete.
	(OV|OO)...
	Starting AA/AB first half-transformation.
	Sorting AA/AB half-transformed integrals.
	Starting BB first half-transformation.
	Sorting BB half-transformed integrals.
	First half integral transformation complete.
	Starting AA second half-transformation.
	Starting AB second half-transformation.
	Starting BB second half-transformation.
	Two-electron integral transformation complete.
	(OV|OV)...
	Starting AA second half-transformation.
	Starting AB second half-transformation.
	Starting BB second half-transformation.
	Two-electron integral transformation complete.
	(OV|VV)...
	Starting AA second half-transformation.
	Starting AB second half-transformation.
	Starting BB second half-transformation.
	Two-electron integral transformation complete.
	(VV|OO)...
	Starting AA/AB first half-transformation.
	Sorting AA/AB half-transformed integrals.
	Starting BB first half-transformation.
	Sorting BB half-transformed integrals.

      * MP2 total energy                      = -472.848370503781666
      * CCSD total energy                     = -472.851374945394639
      * CCSD(T) total energy                     = -472.874475515640597
*** Psi4 exiting successfully. Buy a developer a beer!
