                               Psi4 1.4a3.dev88

  ==> Input File <==

--------------------------------------------------------------------------
# Any line starting with the # character is a comment line
memory 250000 mb
molecule molecule{
0 3
S          0.0000000000        0.0000000000       -0.5025036822
O          0.0000000000        0.0000000000        1.0069295132
}

set {
  reference uhf
  basis aug-cc-pV(t+d)Z
  scf_type OUT_OF_CORE
  freeze_core true
}

energy('ccsd(t)')
--------------------------------------------------------------------------

    Molecular point group: c2v

    Geometry (in Angstrom), charge = 0, multiplicity = 3:

       Center              X                  Y                   Z               Mass
    ------------   -----------------  -----------------  -----------------  -----------------
         S            0.000000000000     0.000000000000    -0.503330669725    31.972071174400
         O            0.000000000000     0.000000000000     1.006102525675    15.994914619570

  Charge       = 0
  Multiplicity = 3
  Basis Set: AUG-CC-PV(T+D)Z
    Blend: AUG-CC-PV(T+D)Z

    Orbital Energies [Eh]
    ---------------------

    Alpha Occupied:

       1A1   -92.070523     2A1   -20.659351     3A1    -9.064249
       1B1    -6.752896     1B2    -6.752896     4A1    -6.738779
       5A1    -1.451419     6A1    -0.956423     2B2    -0.675664
       2B1    -0.675664     7A1    -0.640464     3B1    -0.434117
       3B2    -0.434117

    Alpha Virtual:

       8A1     0.062861     9A1     0.080458     4B1     0.086120
       4B2     0.086120    10A1     0.163282    11A1     0.194851
       5B2     0.197252     5B1     0.197252    12A1     0.237684
       1A2     0.237684    13A1     0.331923     6B1     0.339055
       6B2     0.339055    14A1     0.422338     7B1     0.493469
       7B2     0.493469    15A1     0.558458    16A1     0.635423
       2A2     0.635423    17A1     0.669381     8B1     0.676099
       8B2     0.676099    18A1     0.702412     3A2     0.702412
       9B2     0.819223     9B1     0.819223    10B2     0.872974
      10B1     0.872974    19A1     0.884395    20A1     0.987002
       4A2     0.987002    11B1     0.999027    11B2     0.999027
      21A1     1.016861    22A1     1.097233    12B2     1.255401
      12B1     1.255401    23A1     1.452266    24A1     1.852291
       5A2     1.852291    25A1     1.869471    26A1     1.929266
      13B1     1.948797    13B2     1.948797    27A1     2.019031
       6A2     2.019031    14B2     2.085155    14B1     2.085155
      15B2     2.091067    15B1     2.091067    16B1     2.273259
      16B2     2.273259    28A1     2.325111     7A2     2.325111
      29A1     2.397164    17B1     2.411442    17B2     2.411442
      30A1     2.551136     8A2     2.551136    18B2     2.568989
      18B1     2.568989    31A1     2.612684    32A1     2.940138
      19B2     3.147434    19B1     3.147434    33A1     3.574948
      20B2     4.343086    20B1     4.343086    34A1     4.756016
      35A1     5.875492    21B2     6.450755    21B1     6.450755
       9A2     6.571953    36A1     6.571953    37A1     6.666678
      22B2     6.692382    22B1     6.692382    10A2     6.987249
      38A1     6.987249    23B2     7.161148    23B1     7.161148
      39A1     7.237019    11A2     7.237019    40A1     7.314451
      24B1     7.536743    24B2     7.536743    41A1     8.620804
      42A1    11.375219

    Beta Occupied:

       1A1   -92.058198     2A1   -20.616025     3A1    -9.050907
       4A1    -6.735697     1B2    -6.720350     1B1    -6.720350
       5A1    -1.344325     6A1    -0.806433     7A1    -0.572162
       2B1    -0.491496     2B2    -0.491496

    Beta Virtual:

       3B1     0.026661     3B2     0.026661     8A1     0.067087
       9A1     0.084152     4B2     0.102545     4B1     0.102545
      10A1     0.173130     5B1     0.207090     5B2     0.207090
      11A1     0.208474     1A2     0.266212    12A1     0.266212
      13A1     0.338399     6B1     0.367686     6B2     0.367686
      14A1     0.442505     7B2     0.525938     7B1     0.525938
      15A1     0.569579    16A1     0.668187     2A2     0.672919
      17A1     0.672919     8B2     0.712887     8B1     0.712887
       3A2     0.748701    18A1     0.748701     9B1     0.839910
       9B2     0.839910    19A1     0.905645    10B1     0.914791
      10B2     0.914791     4A2     0.999493    20A1     0.999493
      11B1     1.030527    11B2     1.030527    21A1     1.034762
      22A1     1.119021    12B1     1.274154    12B2     1.274154
      23A1     1.483763    24A1     1.879520     5A2     1.893768
      25A1     1.893768    26A1     1.937850    13B1     1.980149
      13B2     1.980149    27A1     2.047737     6A2     2.047737
      14B2     2.090539    14B1     2.090539    15B1     2.123507
      15B2     2.123507    16B2     2.328432    16B1     2.328432
      28A1     2.362722     7A2     2.362722    29A1     2.413267
      17B2     2.443910    17B1     2.443910     8A2     2.579880
      30A1     2.579880    18B1     2.592326    18B2     2.592326
      31A1     2.637323    32A1     2.964172    19B1     3.170394
      19B2     3.170394    33A1     3.588259    20B1     4.423138
      20B2     4.423139    34A1     4.780643    35A1     5.897530
      21B1     6.498701    21B2     6.498701     9A2     6.605573
      36A1     6.605573    37A1     6.689787    22B2     6.716849
      22B1     6.716849    10A2     7.079403    38A1     7.079403
      23B1     7.205598    23B2     7.205598    11A2     7.252562
      39A1     7.252562    40A1     7.347300    24B1     7.556180
      24B2     7.556180    41A1     8.632102    42A1    11.414618

    Final Occupation by Irrep:
             A1    A2    B1    B2
    DOCC [     7,    0,    2,    2 ]
    SOCC [     0,    0,    1,    1 ]

  @UHF Final Energy:  -472.40771412781351

   => Energetics <=

    Nuclear Repulsion Energy =             44.8742502630666706
    One-Electron Energy =                -741.6499287052390628
    Two-Electron Energy =                 224.3679643143588862
    Total Energy =                       -472.4077141278135059

  UHF NO Occupations:
  HONO-2 :    2 B2 1.9886376
  HONO-1 :    3 B2 1.0000000
  HONO-0 :    3 B1 1.0000000
  LUNO+0 :    4 B2 0.0113624
  LUNO+1 :    4 B1 0.0113624
  LUNO+2 :    8 A1 0.0068387
  LUNO+3 :    9 A1 0.0011924

Computation Completed

Properties will be evaluated at   0.000000,   0.000000,   0.000000 [a0]

Properties computed using the SCF density matrix

  Nuclear Dipole Moment: [e a0]
     X:     0.0000      Y:     0.0000      Z:    -0.0084

  Electronic Dipole Moment: [e a0]
     X:     0.0000      Y:     0.0000      Z:    -0.7543

  Dipole Moment: [e a0]
     X:     0.0000      Y:     0.0000      Z:    -0.7627     Total:     0.7627

  Dipole Moment: [D]
     X:     0.0000      Y:     0.0000      Z:    -1.9386     Total:     1.9386

*** tstop() called on n412-040.vsc4.prov at Tue Jan 26 18:34:57 2021
Module time:
	user time   =      52.13 seconds =       0.87 minutes
	system time =       3.24 seconds =       0.05 minutes
	total time  =         10 seconds =       0.17 minutes
Total time:
	user time   =      52.13 seconds =       0.87 minutes
	system time =       3.24 seconds =       0.05 minutes
	total time  =         10 seconds =       0.17 minutes

*** tstart() called on n412-040.vsc4.prov
*** at Tue Jan 26 18:34:57 2021

	Wfn Parameters:
	--------------------
	Wavefunction         = CCSD_T
	Number of irreps     = 4
	Number of MOs        = 101
	Number of active MOs = 95
	AO-Basis             = NONE
	Semicanonical        = false
	Reference            = UHF
	Print Level          = 1

	IRREP	# MOs	# FZDC	# DOCC	# SOCC	# VIRT	# FZVR
	-----	-----	------	------	------	------	------
	 A1	   42	    4	    3	    0	    35	    0
	 A2	   11	    0	    0	    0	    11	    0
	 B1	   24	    1	    1	    1	    21	    0
	 B2	   24	    1	    1	    1	    21	    0
	Transforming integrals...
	IWL integrals will be deleted.
	(OO|OO)...
	Presorting SO-basis two-electron integrals.
	Sorting File: SO Ints (nn|nn) nbuckets = 1
	Constructing frozen core operators
	Starting AA/AB first half-transformation.
	Sorting AA/AB half-transformed integrals.
	Starting BB first half-transformation.
	Sorting BB half-transformed integrals.
	First half integral transformation complete.
	Starting AA second half-transformation.
	Starting AB second half-transformation.
	Starting BB second half-transformation.
	Two-electron integral transformation complete.
	(OO|OV)...
	Starting AA second half-transformation.
	Starting AB second half-transformation.
	Starting BB second half-transformation.
	Two-electron integral transformation complete.
	(OO|VV)...
	Starting AA second half-transformation.
	Starting AB second half-transformation.
	Starting BB second half-transformation.
	Two-electron integral transformation complete.
	(OV|OO)...
	Starting AA/AB first half-transformation.
	Sorting AA/AB half-transformed integrals.
	Starting BB first half-transformation.
	Sorting BB half-transformed integrals.
	First half integral transformation complete.
	Starting AA second half-transformation.
	Starting AB second half-transformation.
	Starting BB second half-transformation.
	Two-electron integral transformation complete.
	(OV|OV)...
	Starting AA second half-transformation.
	Starting AB second half-transformation.
	Starting BB second half-transformation.
	Two-electron integral transformation complete.
	(OV|VV)...
	Starting AA second half-transformation.
	Starting AB second half-transformation.
	Starting BB second half-transformation.
	Two-electron integral transformation complete.
	(VV|OO)...
	Starting AA/AB first half-transformation.
	Sorting AA/AB half-transformed integrals.
	Starting BB first half-transformation.
	Sorting BB half-transformed integrals.
	First half integral transformation complete.
	Starting AA second half-transformation.
	Starting AB second half-transformation.
	Starting BB second half-transformation.
	Two-electron integral transformation complete.
	(VV|OV)...
	Starting AA second half-transformation.
	Starting AB second half-transformation.
	Starting BB second half-transformation.
	Two-electron integral transformation complete.
	(VV|VV)...
	Starting AA second half-transformation.
	Starting AB second half-transformation.
	Starting BB second half-transformation.
	Two-electron integral transformation complete.
	Frozen core energy     =   -478.91267578240388

	Size of irrep 0 of <AB|CD> integrals:      1.145 (MW) /      9.159 (MB)
	Size of irrep 1 of <AB|CD> integrals:      0.682 (MW) /      5.458 (MB)
	Size of irrep 2 of <AB|CD> integrals:      0.933 (MW) /      7.465 (MB)
	Size of irrep 3 of <AB|CD> integrals:      0.933 (MW) /      7.465 (MB)
	Total:                                     3.693 (MW) /     29.548 (MB)

	Size of irrep 0 of <ab|cd> integrals:      1.237 (MW) /      9.892 (MB)
	Size of irrep 1 of <ab|cd> integrals:      0.755 (MW) /      6.041 (MB)
	Size of irrep 2 of <ab|cd> integrals:      1.024 (MW) /      8.193 (MB)
	Size of irrep 3 of <ab|cd> integrals:      1.024 (MW) /      8.193 (MB)
	Total:                                     4.040 (MW) /     32.320 (MB)

	Size of irrep 0 of <Ab|Cd> integrals:      5.153 (MW) /     41.223 (MB)
	Size of irrep 1 of <Ab|Cd> integrals:      2.870 (MW) /     22.957 (MB)
	Size of irrep 2 of <Ab|Cd> integrals:      3.912 (MW) /     31.300 (MB)
	Size of irrep 3 of <Ab|Cd> integrals:      3.912 (MW) /     31.300 (MB)
	Total:                                    15.848 (MW) /    126.780 (MB)

	Size of irrep 0 of <IA|BC> integrals:      0.421 (MW) /      3.369 (MB)
	Size of irrep 1 of <IA|BC> integrals:      0.193 (MW) /      1.546 (MB)
	Size of irrep 2 of <IA|BC> integrals:      0.299 (MW) /      2.396 (MB)
	Size of irrep 3 of <IA|BC> integrals:      0.299 (MW) /      2.396 (MB)
	Total:                                     1.213 (MW) /      9.706 (MB)

	Size of irrep 0 of <ia|bc> integrals:      0.345 (MW) /      2.758 (MB)
	Size of irrep 1 of <ia|bc> integrals:      0.134 (MW) /      1.071 (MB)
	Size of irrep 2 of <ia|bc> integrals:      0.227 (MW) /      1.814 (MB)
	Size of irrep 3 of <ia|bc> integrals:      0.227 (MW) /      1.814 (MB)
	Total:                                     0.932 (MW) /      7.456 (MB)

	Size of irrep 0 of <Ia|Bc> integrals:      0.438 (MW) /      3.505 (MB)
	Size of irrep 1 of <Ia|Bc> integrals:      0.205 (MW) /      1.640 (MB)
	Size of irrep 2 of <Ia|Bc> integrals:      0.313 (MW) /      2.500 (MB)
	Size of irrep 3 of <Ia|Bc> integrals:      0.313 (MW) /      2.500 (MB)
	Total:                                     1.268 (MW) /     10.145 (MB)

	Size of irrep 0 of <iA|bC> integrals:      0.334 (MW) /      2.670 (MB)
	Size of irrep 1 of <iA|bC> integrals:      0.127 (MW) /      1.016 (MB)
	Size of irrep 2 of <iA|bC> integrals:      0.216 (MW) /      1.725 (MB)
	Size of irrep 3 of <iA|bC> integrals:      0.216 (MW) /      1.725 (MB)
	Total:                                     0.892 (MW) /      7.136 (MB)

	Size of irrep 0 of tIjAb amplitudes:       0.030 (MW) /      0.236 (MB)
	Size of irrep 1 of tIjAb amplitudes:       0.007 (MW) /      0.054 (MB)
	Size of irrep 2 of tIjAb amplitudes:       0.018 (MW) /      0.142 (MB)
	Size of irrep 3 of tIjAb amplitudes:       0.018 (MW) /      0.142 (MB)
	Total:                                     0.072 (MW) /      0.575 (MB)

	Nuclear Rep. energy          =     44.87425026306667
	SCF energy                   =   -472.40771412781351
	One-electron energy          =    -67.76479791184107
	Two-electron (AA) energy     =      8.45327841365735
	Two-electron (BB) energy     =      4.13821120635488
	Two-electron (AB) energy     =     16.80401968335009
	Two-electron energy          =     29.39550930336232
	Reference energy             =   -472.40771412781595

*** tstop() called on n412-040.vsc4.prov at Tue Jan 26 18:35:10 2021
Module time:
	user time   =       2.92 seconds =       0.05 minutes
	system time =       1.64 seconds =       0.03 minutes
	total time  =         13 seconds =       0.22 minutes
Total time:
	user time   =      55.05 seconds =       0.92 minutes
	system time =       4.88 seconds =       0.08 minutes
	total time  =         23 seconds =       0.38 minutes
            **************************
            *                        *
            *        CCENERGY        *
            *                        *
            **************************

    Nuclear Rep. energy (wfn)     =   44.874250263066671
    SCF energy          (wfn)     = -472.407714127813506
    Reference energy    (file100) = -472.407714127815950

    Input parameters:
    -----------------
    Wave function   =     CCSD_T
    Reference wfn   =     UHF
    Brueckner       =     No
    Memory (Mbytes) =     250000.0
    Maxiter         =     50
    R_Convergence   =     1.0e-07
    E_Convergence   =     1.0e-06
    Restart         =     Yes
    DIIS            =     Yes
    AO Basis        =     NONE
    ABCD            =     NEW
    Cache Level     =     2
    Cache Type      =     LRU
    Print Level     =     1
    Num. of threads =     48
    # Amps to Print =     10
    Print MP2 Amps? =     No
    Analyze T2 Amps =     No
    Print Pair Ener =     No
    Local CC        =     No
    SCS-MP2         =     False
    SCSN-MP2        =     False
    SCS-CCSD        =     False

MP2 correlation energy -0.3863206860763633
                Solving CC Amplitude Equations
                ------------------------------
  Iter             Energy              RMS        T1Diag      D1Diag    New D1Diag    D2Diag
  ----     ---------------------    ---------   ----------  ----------  ----------   --------
     0        -0.386320686076363    0.000e+00    0.000000    0.000000    0.000000    0.000000
     1        -0.380981677780864    9.751e-02    0.021742    0.000000    0.000000    0.000000
     2        -0.394952240045434    3.265e-02    0.022669    0.000000    0.000000    0.000000
     3        -0.398624969412544    1.706e-02    0.028204    0.000000    0.000000    0.000000
     4        -0.398417207027639    4.616e-03    0.029474    0.000000    0.000000    0.000000
     5        -0.398413232272814    1.894e-03    0.030077    0.000000    0.000000    0.000000
     6        -0.398414435032153    6.345e-04    0.030160    0.000000    0.000000    0.000000
     7        -0.398415159386352    2.599e-04    0.030164    0.000000    0.000000    0.000000
     8        -0.398420093526531    9.608e-05    0.030167    0.000000    0.000000    0.000000
     9        -0.398420534403096    3.269e-05    0.030167    0.000000    0.000000    0.000000
    10        -0.398419500472520    1.366e-05    0.030166    0.000000    0.000000    0.000000
    11        -0.398419833391009    6.513e-06    0.030166    0.000000    0.000000    0.000000
    12        -0.398419589336348    2.631e-06    0.030166    0.000000    0.000000    0.000000
    13        -0.398419733860402    1.314e-06    0.030166    0.000000    0.000000    0.000000
    14        -0.398419763175511    3.497e-07    0.030166    0.000000    0.000000    0.000000
    15        -0.398419758676589    1.203e-07    0.030166    0.000000    0.000000    0.000000
    16        -0.398419761099415    4.722e-08    0.030166    0.000000    0.000000    0.000000

    Iterations converged.

    Largest TIA Amplitudes:
              2   2        -0.0279410794
              5  69        -0.0263797560
              3  48        -0.0263797396
              5  68         0.0181726763
              3  47         0.0181726619
              5  71         0.0164359569
              3  50         0.0164359513
              2   0         0.0156125603
              2   3        -0.0153087042
              2   5         0.0145812188

    Largest Tia Amplitudes:
              1   3        -0.0200269916
              4  76         0.0182020104
              3  54         0.0182019402
              3  46        -0.0161143292
              4  68        -0.0161136247
              3  47         0.0150845488
              4  69         0.0150842786
              1   2        -0.0146347340
              4  71         0.0143904682
              3  49         0.0143902999

    Largest TIJAB Amplitudes:
      6   4  35   4        -0.0187971897
      6   4  36   8        -0.0175491956
      6   4  35   8        -0.0160025822
      6   4  36   4        -0.0160025822
      4   2  50   2         0.0133710559
      6   2  71   2         0.0133710549
      4   2  48   2        -0.0116097238
      6   2  69   2        -0.0116097219
      6   4  69  48        -0.0112877806
      6   4  71  50        -0.0112109746

    Largest Tijab Amplitudes:
      4   3  68  46        -0.0591430890
      4   3  68  47         0.0248767155
      4   3  69  46         0.0248767043
      4   2  68   3        -0.0209034147
      3   2  46   3        -0.0209033979
      4   2  68   2        -0.0185651490
      3   2  46   2        -0.0185651360
      4   3  71  46        -0.0180611305
      4   3  68  49        -0.0180611201

      * MP2 total energy                      = -472.794034813892324
      * CCSD total energy                     = -472.806133888915383
      * CCSD(T) total energy                     = -472.826427508141705
*** Psi4 exiting successfully. Buy a developer a beer!
