                               Psi4 1.2a1.dev939

  ==> Input File <==

--------------------------------------------------------------------------
# Any line starting with the # character is a comment line

memory 32000 mb

molecule molecule {
0 1
F          0.0000000000        0.0000000000       -0.7006833392
F          0.0000000000        0.0000000000        0.7006833392
}

set {
  reference rhf
  basis aug-cc-pv(Q+d)z
  scf_type OUT_OF_CORE
  freeze_core true
}

energy('ccsd')
--------------------------------------------------------------------------

    Molecular point group: d2h

    Geometry (in Angstrom), charge = 0, multiplicity = 1:

       Center              X                  Y                   Z               Mass
    ------------   -----------------  -----------------  -----------------  -----------------
           F          0.000000000000     0.000000000000    -0.700683339200    18.998403224000
           F          0.000000000000     0.000000000000     0.700683339200    18.998403224000

  Charge       = 0
  Multiplicity = 1
  Basis Set: AUG-CC-PV(Q+D)Z
    Blend: AUG-CC-PV(Q+D)Z

    Orbital Energies (a.u.)
    -----------------------

    Doubly Occupied:

       1Ag   -26.428401     1B1u  -26.428149     2Ag    -1.770606
       2B1u   -1.495263     1B2u   -0.813807     1B3u   -0.813807
       3Ag    -0.756142     1B3g   -0.665024     1B2g   -0.665024

  @RHF Final Energy:  -198.77035939292477

   => Energetics <=

    Nuclear Repulsion Energy =             30.5868225329354253
    One-Electron Energy =                -339.0419203923908640
    Two-Electron Energy =                 109.6847384665306890
    Total Energy =                       -198.7703593929247745
      * MP2 total energy                      = -199.344894796569179
      * CCSD total energy                     = -199.344311564595046
*** Psi4 exiting successfully. Buy a developer a beer!
