                               Psi4 1.2a1.dev939

  ==> Input File <==

--------------------------------------------------------------------------
# Any line starting with the # character is a comment line

memory 32000 mb

molecule molecule {
0 1
F          0.0000000000        0.0000000000       -0.7006833392
F          0.0000000000        0.0000000000        0.7006833392
}

set {
  reference rhf

  basis aug-cc-pv(6+d)z
  scf_type OUT_OF_CORE
  freeze_core true
}

energy('ccsd')
--------------------------------------------------------------------------

    Molecular point group: d2h

    Geometry (in Angstrom), charge = 0, multiplicity = 1:

       Center              X                  Y                   Z               Mass
    ------------   -----------------  -----------------  -----------------  -----------------
           F          0.000000000000     0.000000000000    -0.700683339200    18.998403224000
           F          0.000000000000     0.000000000000     0.700683339200    18.998403224000

  Charge       = 0
  Multiplicity = 1
  Basis Set: AUG-CC-PV(6+D)Z
    Blend: AUG-CC-PV(6+D)Z

    Orbital Energies (a.u.)
    -----------------------

    Doubly Occupied:

       1Ag   -26.427061     1B1u  -26.426808     2Ag    -1.769938
       2B1u   -1.494614     1B3u   -0.813635     1B2u   -0.813635
       3Ag    -0.755836     1B2g   -0.664860     1B3g   -0.664860

  @RHF Final Energy:  -198.77475179371271

   => Energetics <=

    Nuclear Repulsion Energy =             30.5868225329354253
    One-Electron Energy =                -339.0606570619846707
    Two-Electron Energy =                 109.6990827353365603
    PCM Polarization Energy =               0.0000000000000000
    Total Energy =                       -198.7747517937127100
      * MP2 total energy                      = -199.373901635864883
      * CCSD total energy                     = -199.367695292214506
*** Psi4 exiting successfully. Buy a developer a beer!
