                               Psi4 1.2a1.dev939

  ==> Input File <==

--------------------------------------------------------------------------
# Any line starting with the # character is a comment line

memory 32000 mb

molecule molecule {
0 1
F          0.0000000000        0.0000000000       -0.7006833392
F          0.0000000000        0.0000000000        0.7006833392
}

set {
  reference rhf
  basis aug-cc-pv(T+d)z
  scf_type OUT_OF_CORE
  freeze_core true
}

energy('ccsd')
--------------------------------------------------------------------------

    Molecular point group: d2h

    Geometry (in Angstrom), charge = 0, multiplicity = 1:

       Center              X                  Y                   Z               Mass
    ------------   -----------------  -----------------  -----------------  -----------------
           F          0.000000000000     0.000000000000    -0.700683339200    18.998403224000
           F          0.000000000000     0.000000000000     0.700683339200    18.998403224000

  Charge       = 0
  Multiplicity = 1
  Basis Set: AUG-CC-PV(T+D)Z
    Blend: AUG-CC-PV(T+D)Z

    Orbital Energies (a.u.)
    -----------------------

    Doubly Occupied:

       1Ag   -26.432528     1B1u  -26.432286     2Ag    -1.772540
       2B1u   -1.497141     1B2u   -0.814269     1B3u   -0.814269
       3Ag    -0.756990     1B3g   -0.665425     1B2g   -0.665425

  @RHF Final Energy:  -198.75613561575526

   => Energetics <=

    Nuclear Repulsion Energy =             30.5868225329354253
    One-Electron Energy =                -338.9841711200754162
    Two-Electron Energy =                 109.6412129713847605
    Total Energy =                       -198.7561356157552552
      * MP2 total energy                      = -199.290907262076416
      * CCSD total energy                     = -199.293830259002334
*** Psi4 exiting successfully. Buy a developer a beer!
