                               Psi4 1.2a1.dev939

  ==> Input File <==

--------------------------------------------------------------------------
# Any line starting with the # character is a comment line

memory 32000 mb

molecule molecule {
0 1
F          0.0000000000        0.0000000000       -0.7006833392
F          0.0000000000        0.0000000000        0.7006833392
}

set {
  reference rhf

  basis aug-cc-pv(5+d)z
  scf_type OUT_OF_CORE
  freeze_core true
}

energy('ccsd')
--------------------------------------------------------------------------

    Molecular point group: d2h

    Geometry (in Angstrom), charge = 0, multiplicity = 1:

       Center              X                  Y                   Z               Mass
    ------------   -----------------  -----------------  -----------------  -----------------
           F          0.000000000000     0.000000000000    -0.700683339200    18.998403224000
           F          0.000000000000     0.000000000000     0.700683339200    18.998403224000

  Charge       = 0
  Multiplicity = 1
  Basis Set: AUG-CC-PV(5+D)Z
    Blend: AUG-CC-PV(5+D)Z

    Orbital Energies (a.u.)
    -----------------------

    Doubly Occupied:

       1Ag   -26.427146     1B1u  -26.426893     2Ag    -1.769981
       2B1u   -1.494655     1B2u   -0.813643     1B3u   -0.813643
       3Ag    -0.755862     1B3g   -0.664867     1B2g   -0.664867

  @RHF Final Energy:  -198.77437148564036

   => Energetics <=

    Nuclear Repulsion Energy =             30.5868225329354253
    One-Electron Energy =                -339.0592712522199577
    Two-Electron Energy =                 109.6980772336442129
    Total Energy =                       -198.7743714856403585
      * MP2 total energy                      = -199.365858599976633
      * CCSD total energy                     = -199.361761285282768
*** Psi4 exiting successfully. Buy a developer a beer!
