                               Psi4 1.2a1.dev939

  ==> Input File <==

--------------------------------------------------------------------------
# Any line starting with the # character is a comment line
memory 250000 mb
molecule molecule{
0 2
P          0.0000000000        0.0000000000        0.0599907894
H          0.0000000000       -1.0156462266       -0.9217514498
H          0.0000000000        1.0156462266       -0.9217514498
}

set {
  reference uhf
  basis aug-cc-pv(6+d)z
  scf_type OUT_OF_CORE
  freeze_core true
}

energy('ccsd')
--------------------------------------------------------------------------

    Molecular point group: c2v

    Geometry (in Angstrom), charge = 0, multiplicity = 2:

       Center              X                  Y                   Z               Mass
    ------------   -----------------  -----------------  -----------------  -----------------
           P          0.000000000000     0.000000000000     0.059984361826    30.973761629000
           H          0.000000000000    -1.015646226600    -0.921757877374     1.007825032070
           H         -0.000000000000     1.015646226600    -0.921757877374     1.007825032070

  Charge       = 0
  Multiplicity = 2
  Basis Set: AUG-CC-PV(6+D)Z
    Blend: AUG-CC-PV(6+D)Z

    Orbital Energies (a.u.)
    -----------------------

    Alpha Occupied:

       1A1   -79.956729     2A1    -7.499465     1B1    -5.404750
       1B2    -5.390311     3A1    -5.388957     4A1    -0.856932
       2B2    -0.526276     5A1    -0.430683     2B1    -0.376823

    Alpha Virtual:

       6A1     0.020449     3B2     0.037602     7A1     0.050061
       3B1     0.052897     4B2     0.065577     8A1     0.091256
       9A1     0.124432    10A1     0.129593     5B2     0.130362
       1A2     0.134158     4B1     0.135054     6B2     0.170164
      11A1     0.182379     7B2     0.185868    12A1     0.189201
       2A2     0.201009     5B1     0.203788     8B2     0.215636
      13A1     0.223606     6B1     0.241068    14A1     0.260496
       9B2     0.285958    15A1     0.294746     7B1     0.325823
      16A1     0.331992     3A2     0.337246     8B1     0.344309
      10B2     0.358450    17A1     0.381456    11B2     0.387767
      12B2     0.418886     9B1     0.423746     4A2     0.432770
      18A1     0.433816    19A1     0.459829    13B2     0.461751
      20A1     0.487317     5A2     0.489302    10B1     0.495465
      14B2     0.501493    21A1     0.512858     6A2     0.518455
      11B1     0.527296    22A1     0.546607    15B2     0.578899
      23A1     0.595312    16B2     0.627258    24A1     0.715499
      12B1     0.729581    25A1     0.738255     7A2     0.760949
      13B1     0.773705    17B2     0.792680    26A1     0.795871
      27A1     0.799563     8A2     0.803365    14B1     0.805840
      18B2     0.813773    28A1     0.849636     9A2     0.851686
      19B2     0.853240    15B1     0.859009    20B2     0.869069
      29A1     0.885853    21B2     0.913442    30A1     0.921436
      10A2     0.938062    16B1     0.943375    22B2     0.954630
      17B1     0.960271    31A1     0.966726    18B1     1.096770
      23B2     1.099657    11A2     1.116391    32A1     1.118294
      12A2     1.132061    19B1     1.139968    33A1     1.144718
      24B2     1.185058    34A1     1.186181    35A1     1.212690
      20B1     1.219866    25B2     1.228500    36A1     1.257450
      26B2     1.258035    13A2     1.352504    21B1     1.357131
      37A1     1.385021    27B2     1.390723    14A2     1.399649
      38A1     1.401662    28B2     1.417118    29B2     1.515710
      39A1     1.566406    22B1     1.698733    23B1     1.721011
      40A1     1.723475    15A2     1.733048    41A1     1.747606
      30B2     1.757639    42A1     1.784157    16A2     1.786115
      31B2     1.796427    24B1     1.807688    43A1     1.810309
      17A2     1.825069    44A1     1.827077    32B2     1.831309
      25B1     1.831699    18A2     1.835393    33B2     1.842616
      19A2     1.870490    26B1     1.871741    45A1     1.873743
      27B1     1.912114    34B2     1.918138    46A1     1.954065
      35B2     1.958301    47A1     1.976931    28B1     1.979405
      36B2     2.017591    29B1     2.091500    48A1     2.098606
      37B2     2.114570    49A1     2.154473    20A2     2.160824
      30B1     2.192538    50A1     2.267620    38B2     2.308165
      51A1     2.340464    31B1     2.367318    21A2     2.369497
      39B2     2.374149    52A1     2.415080    32B1     2.438265
      22A2     2.460599    53A1     2.477746    40B2     2.483995
      33B1     2.493648    41B2     2.513364    23A2     2.537462
      54A1     2.559602    34B1     2.598040    24A2     2.613590
      42B2     2.615104    55A1     2.661831    43B2     2.668244
      56A1     2.716973    35B1     2.717479    57A1     2.731576
      25A2     2.750082    44B2     2.762298    45B2     2.782039
      36B1     2.788602    58A1     2.918627    26A2     2.922626
      46B2     2.933959    59A1     3.032637    27A2     3.162436
      47B2     3.185766    60A1     3.217219    37B1     3.237044
      48B2     3.318080    61A1     3.335933    38B1     3.416541
      62A1     3.463990    49B2     3.485905    28A2     3.505676
      39B1     3.549872    29A2     3.572008    63A1     3.601403
      50B2     3.604693    64A1     3.646814    40B1     3.666020
      30A2     3.681333    51B2     3.751991    65A1     3.785280
      41B1     3.785342    31A2     3.786346    66A1     3.802132
      52B2     3.812698    53B2     3.830549    32A2     3.856998
      67A1     3.858019    42B1     3.867970    43B1     3.886188
      68A1     3.904367    44B1     3.935799    54B2     3.941956
      69A1     3.978786    33A2     4.022872    45B1     4.025960
      70A1     4.042407    55B2     4.050019    34A2     4.067426
      71A1     4.082938    56B2     4.113362    72A1     4.231662
      46B1     4.240860    57B2     4.248368    73A1     4.312488
      47B1     4.335468    58B2     4.354954    35A2     4.357398
      48B1     4.405189    36A2     4.449860    74A1     4.457729
      59B2     4.468249    49B1     4.486320    75A1     4.523333
      60B2     4.545072    76A1     4.552137    37A2     4.573856
      50B1     4.641119    38A2     4.701089    61B2     4.724991
      77A1     4.727466    78A1     4.766986    79A1     4.813524
      62B2     4.815631    39A2     4.868594    63B2     4.869484
      51B1     5.007904    80A1     5.022283    64B2     5.086230
      52B1     5.096399    53B1     5.161908    81A1     5.262274
      65B2     5.298218    40A2     5.336607    66B2     5.385399
      54B1     5.388615    41A2     5.408739    82A1     5.417870
      55B1     5.440268    83A1     5.441231    56B1     5.486220
      84A1     5.492730    67B2     5.532966    68B2     5.576963
      42A2     5.612948    69B2     5.658181    43A2     5.671475
      85A1     5.699472    70B2     5.721543    86A1     5.753268
      44A2     5.760549    71B2     5.856185    87A1     5.862625
      88A1     5.877799    57B1     5.879533    45A2     5.896352
      58B1     5.916100    72B2     6.101636    46A2     6.150168
      73B2     6.266335    89A1     6.357685    59B1     6.617522
      90A1     6.673890    74B2     6.699294    47A2     6.788758
      91A1     6.798204    75B2     6.806187    60B1     6.994385
      48A2     7.169486    61B1     7.184803    92A1     7.194671
      49A2     7.222198    76B2     7.232095    62B1     7.238763
      93A1     7.250799    77B2     7.300068    94A1     7.318424
      50A2     7.386235    95A1     7.404192    63B1     7.537688
      51A2     7.559468    78B2     7.579721    64B1     7.593574
      79B2     7.636210    96A1     7.651413    65B1     7.714450
      97A1     7.725682    52A2     7.758344    80B2     7.822318
      98A1     7.835692    53A2     7.929748    66B1     7.935702
      99A1     7.948023    81B2     7.977307    82B2     8.012912
     100A1     8.029389    67B1     8.086508   101A1     8.116105
      68B1     8.118866   102A1     8.159740    54A2     8.172248
      83B2     8.207824    84B2     8.338215   103A1     8.374058
      55A2     8.393039    69B1     8.468975    85B2     8.499418
      56A2     8.609030   104A1     8.707267    70B1     8.730815
      86B2     8.785760   105A1     8.829421    57A2     8.874444
      71B1     8.914621    87B2     8.918985   106A1     8.942988
      72B1     9.066083    88B2     9.166009   107A1     9.258550
      89B2     9.576981   108A1     9.603276    58A2     9.736677
     109A1     9.756784    73B1     9.791086    90B2     9.793915
      74B1     9.960480   110A1    10.062174    59A2    10.090245
      91B2    10.110091    60A2    10.140312   111A1    10.264227
      92B2    10.281976    75B1    10.285121   112A1    10.314224
      93B2    10.387847   113A1    10.395919    76B1    10.442356
      61A2    10.514326    77B1    10.536759    94B2    10.604816
      62A2    10.664986   114A1    10.754114    95B2    10.822996
     115A1    10.909722    63A2    10.930559    96B2    11.024473
      78B1    11.025058    64A2    11.104798    79B1    11.111254
      97B2    11.210480   116A1    11.251095   117A1    11.414878
     118A1    12.069925    98B2    12.102052    80B1    12.339314
      65A2    12.622048    99B2    12.692719   119A1    12.836350
     100B2    13.039320    81B1    13.642599    66A2    13.668350
     101B2    13.819341   120A1    13.868903   121A1    13.956046
     102B2    15.712498   122A1    15.751435    82B1    17.526119
     123A1    17.543561   103B2    17.574848    67A2    17.594438
      83B1    17.642909   124A1    17.720377   104B2    17.728498
      68A2    17.781562    69A2    17.809873    84B1    17.819525
     105B2    17.820955   125A1    17.875877   126A1    18.010086
      85B1    18.013110    70A2    18.224813   106B2    18.238737
     127A1    18.527781   107B2    18.588512    71A2    18.601472
      86B1    18.623307   128A1    18.771079   108B2    18.858738
      72A2    20.393217    87B1    20.395678   129A1    20.396868
     109B2    20.431008    73A2    20.605122   110B2    20.803399
     130A1    20.864809    88B1    20.919764    89B1    21.258758
     111B2    21.301789    74A2    21.305711   131A1    21.386124
      90B1    21.460554   112B2    21.575022   132A1    21.594387
      75A2    21.632502   113B2    21.731330   133A1    21.803417
     134A1    22.495674   114B2    23.100078    91B1    23.143322
     115B2    23.224691    76A2    23.228048   135A1    23.382424
      77A2    24.135075   136A1    24.144090    92B1    24.229418
     116B2    24.264310   137A1    24.380157    93B1    24.462574
     117B2    24.538758    78A2    24.555825   118B2    24.644067
     138A1    24.660375    79A2    24.688417    94B1    24.703537
     139A1    24.769570   119B2    24.802402    95B1    24.861806
      80A2    24.873192   140A1    25.066930   141A1    25.114787
     120B2    25.208998   121B2    25.273470    96B1    26.345666
      81A2    26.520672   142A1    26.620430   143A1    26.737496
      97B1    27.781507   122B2    27.956379   144A1    31.192142
     123B2    32.546526    98B1    34.869897    82A2    34.892418
     145A1    35.044933   124B2    35.062417   125B2    36.637331
     146A1    36.672713   147A1   216.030389

    Beta Occupied:

       1A1   -79.949030     2A1    -7.491026     3A1    -5.385521
       1B2    -5.385328     1B1    -5.370752     4A1    -0.788853
       2B2    -0.520544     5A1    -0.408470

    Beta Virtual:

       2B1     0.018806     6A1     0.021331     3B2     0.037698
       7A1     0.050528     4B2     0.065706     3B1     0.073834
       8A1     0.094528     9A1     0.129071     5B2     0.132437
      10A1     0.135411     1A2     0.140990     4B1     0.141343
       6B2     0.170265    11A1     0.183795     7B2     0.186723
      12A1     0.192952     2A2     0.202200     5B1     0.210073
       8B2     0.217149    13A1     0.230119    14A1     0.266013
       6B1     0.276161     9B2     0.288846    15A1     0.324722
       7B1     0.329050    16A1     0.333597    10B2     0.359032
       3A2     0.368994     8B1     0.372352    17A1     0.385193
      11B2     0.388744    12B2     0.421095     9B1     0.431368
      18A1     0.435735     4A2     0.437156    13B2     0.462226
      19A1     0.464379     5A2     0.490483    10B1     0.499224
      14B2     0.503482    20A1     0.505232    21A1     0.517525
       6A2     0.528595    11B1     0.537599    22A1     0.550598
      15B2     0.579234    23A1     0.604234    16B2     0.629991
      24A1     0.719579    25A1     0.740721    12B1     0.765483
       7A2     0.773143    13B1     0.783807    17B2     0.791978
      26A1     0.796626    27A1     0.803106     8A2     0.811242
      18B2     0.816314    14B1     0.817226    19B2     0.857751
      28A1     0.859471     9A2     0.861024    20B2     0.873330
      15B1     0.881176    29A1     0.891844    21B2     0.918896
      30A1     0.937713    10A2     0.954559    16B1     0.957893
      22B2     0.961095    17B1     0.977005    31A1     0.984367
      18B1     1.100588    23B2     1.101579    32A1     1.118645
      11A2     1.121063    12A2     1.133268    19B1     1.144596
      33A1     1.149425    24B2     1.188048    34A1     1.191826
      35A1     1.220666    20B1     1.223465    25B2     1.229042
      36A1     1.258583    26B2     1.259436    13A2     1.357119
      21B1     1.369061    37A1     1.388051    27B2     1.393018
      38A1     1.405228    14A2     1.406853    28B2     1.418752
      29B2     1.518214    39A1     1.573774    22B1     1.704534
      40A1     1.730218    23B1     1.738434    15A2     1.745421
      41A1     1.756120    30B2     1.764117    42A1     1.791449
      16A2     1.795335    31B2     1.801163    24B1     1.816081
      43A1     1.816198    17A2     1.832683    32B2     1.834077
      44A1     1.834507    18A2     1.837920    25B1     1.837924
      33B2     1.848571    45A1     1.878389    19A2     1.881644
      26B1     1.885665    34B2     1.919085    27B1     1.925041
      35B2     1.961201    46A1     1.964790    28B1     1.990599
      47A1     1.991794    36B2     2.025407    48A1     2.101477
      29B1     2.116925    37B2     2.123323    49A1     2.155657
      20A2     2.167821    30B1     2.210861    50A1     2.270772
      38B2     2.308460    51A1     2.349455    21A2     2.371819
      31B1     2.372676    39B2     2.378504    52A1     2.416480
      32B1     2.442547    22A2     2.466679    53A1     2.484163
      40B2     2.489667    33B1     2.502743    41B2     2.515427
      23A2     2.542048    54A1     2.562140    34B1     2.599550
      24A2     2.615980    42B2     2.617845    55A1     2.664382
      43B2     2.669655    56A1     2.718119    35B1     2.719298
      57A1     2.732104    25A2     2.753294    44B2     2.763454
      45B2     2.782641    36B1     2.793681    58A1     2.921344
      26A2     2.924226    46B2     2.937229    59A1     3.035121
      27A2     3.173795    47B2     3.186414    60A1     3.220912
      37B1     3.255310    48B2     3.319284    61A1     3.342277
      38B1     3.422214    62A1     3.477746    49B2     3.493856
      28A2     3.513603    39B1     3.560489    29A2     3.579874
      50B2     3.606237    63A1     3.608347    64A1     3.659246
      40B1     3.679172    30A2     3.692209    51B2     3.755649
      31A2     3.791523    65A1     3.793587    41B1     3.795829
      66A1     3.811065    52B2     3.818937    53B2     3.839386
      67A1     3.866214    32A2     3.867371    42B1     3.880475
      43B1     3.894158    68A1     3.910537    44B1     3.942300
      54B2     3.944857    69A1     3.987411    33A2     4.030027
      45B1     4.034084    70A1     4.045703    55B2     4.060125
      34A2     4.074571    71A1     4.084943    56B2     4.116576
      72A1     4.241400    46B1     4.249566    57B2     4.257011
      73A1     4.314877    47B1     4.339875    58B2     4.358097
      35A2     4.360976    48B1     4.410670    36A2     4.452972
      74A1     4.461853    59B2     4.471566    49B1     4.494413
      75A1     4.526299    60B2     4.548670    76A1     4.556586
      37A2     4.583028    50B1     4.649343    38A2     4.704510
      61B2     4.726847    77A1     4.729036    78A1     4.771303
      62B2     4.817024    79A1     4.817924    39A2     4.870342
      63B2     4.873581    51B1     5.012042    80A1     5.025007
      64B2     5.086988    52B1     5.107070    53B1     5.165369
      81A1     5.263997    65B2     5.298953    40A2     5.338186
      66B2     5.386689    54B1     5.389877    41A2     5.410888
      82A1     5.420070    55B1     5.442822    83A1     5.443068
      56B1     5.488153    84A1     5.494182    67B2     5.536077
      68B2     5.577904    42A2     5.614349    69B2     5.660106
      43A2     5.677343    85A1     5.704330    70B2     5.722296
      86A1     5.754058    44A2     5.764603    71B2     5.856914
      87A1     5.864319    88A1     5.881799    57B1     5.885130
      45A2     5.901209    58B1     5.921919    72B2     6.104335
      46A2     6.153344    73B2     6.267216    89A1     6.361026
      59B1     6.626616    90A1     6.675665    74B2     6.700342
      47A2     6.793050    91A1     6.799498    75B2     6.806727
      60B1     7.009331    48A2     7.178560    61B1     7.194360
      92A1     7.203264    49A2     7.227281    76B2     7.233935
      62B1     7.244733    93A1     7.259551    77B2     7.308374
      94A1     7.324870    50A2     7.391462    95A1     7.408908
      63B1     7.541018    51A2     7.563681    78B2     7.581714
      64B1     7.600298    79B2     7.643314    96A1     7.654835
      65B1     7.721968    97A1     7.729592    52A2     7.762517
      80B2     7.825307    98A1     7.843395    53A2     7.938550
      66B1     7.944817    99A1     7.953316    81B2     7.982499
      82B2     8.018209   100A1     8.034952    67B1     8.095071
     101A1     8.126665    68B1     8.127623   102A1     8.164733
      54A2     8.179164    83B2     8.215931    84B2     8.341892
     103A1     8.375308    55A2     8.401953    69B1     8.478128
      85B2     8.499111    56A2     8.613902   104A1     8.710724
      70B1     8.735751    86B2     8.789587   105A1     8.831735
      57A2     8.880041    71B1     8.921573    87B2     8.921905
     106A1     8.945732    72B1     9.070830    88B2     9.171710
     107A1     9.264361    89B2     9.578257   108A1     9.609296
      58A2     9.737970   109A1     9.759894    73B1     9.791628
      90B2     9.794303    74B1     9.966538   110A1    10.062505
      59A2    10.092703    91B2    10.110764    60A2    10.144108
     111A1    10.266105    92B2    10.283012    75B1    10.285327
     112A1    10.316244    93B2    10.388059   113A1    10.396033
      76B1    10.445686    61A2    10.516702    77B1    10.539452
      94B2    10.605950    62A2    10.667174   114A1    10.755496
      95B2    10.823230   115A1    10.910389    63A2    10.931196
      96B2    11.024699    78B1    11.025577    64A2    11.106665
      79B1    11.113335    97B2    11.210912   116A1    11.251962
     117A1    11.414969   118A1    12.070178    98B2    12.102402
      80B1    12.342800    65A2    12.625070    99B2    12.692925
     119A1    12.836888   100B2    13.039925    81B1    13.641994
      66A2    13.667704   101B2    13.818110   120A1    13.873343
     121A1    13.955036   102B2    15.712330   122A1    15.751372
      82B1    17.526046   123A1    17.543486   103B2    17.574769
      67A2    17.594354    83B1    17.642900   124A1    17.720378
     104B2    17.728561    68A2    17.781612    69A2    17.809890
      84B1    17.819688   105B2    17.821006   125A1    17.875931
     126A1    18.010282    85B1    18.013236    70A2    18.225051
     106B2    18.238959   127A1    18.528050   107B2    18.588401
      71A2    18.601936    86B1    18.623837   128A1    18.770815
     108B2    18.858480    72A2    20.392864    87B1    20.395327
     129A1    20.396510   109B2    20.430652    73A2    20.604868
     110B2    20.803144   130A1    20.864553    88B1    20.919554
      89B1    21.258517   111B2    21.301549    74A2    21.305469
     131A1    21.386013    90B1    21.460854   112B2    21.574459
     132A1    21.593836    75A2    21.632329   113B2    21.730919
     133A1    21.802920   134A1    22.494634   114B2    23.098936
      91B1    23.142563   115B2    23.223941    76A2    23.227331
     135A1    23.381781    77A2    24.134487   136A1    24.143498
      92B1    24.228860   116B2    24.263688   137A1    24.379498
      93B1    24.462637   117B2    24.538136    78A2    24.555614
     118B2    24.643251   138A1    24.659793    79A2    24.687851
      94B1    24.702984   139A1    24.768870   119B2    24.801817
      95B1    24.861569    80A2    24.872917   140A1    25.066509
     141A1    25.115822   120B2    25.208404   121B2    25.272914
      96B1    26.356224    81A2    26.531030   142A1    26.629511
     143A1    26.741155    97B1    27.798259   122B2    27.958262
     144A1    31.193981   123B2    32.549054    98B1    34.869033
      82A2    34.891528   145A1    35.043919   124B2    35.061406
     125B2    36.636508   146A1    36.671889   147A1   216.033559

    Final Occupation by Irrep:
             A1    A2    B1    B2
    DOCC [     5,    0,    1,    2 ]
    SOCC [     0,    0,    1,    0 ]

  Energy converged.

  @UHF Final Energy:  -341.89324982484806

   => Energetics <=

    Nuclear Repulsion Energy =             11.4991145277394580
    One-Electron Energy =                -495.6542778297674658
    Two-Electron Energy =                 142.2619134771799452
    Total Energy =                       -341.8932498248481124

  UHF NO Occupations:
  HONO-2 :    2 B2 1.9993616
  HONO-1 :    5 A1 1.9906637
  HONO-0 :    2 B1 1.0000000
  LUNO+0 :    6 A1 0.0093363
  LUNO+1 :    3 B2 0.0006384
  LUNO+2 :    7 A1 0.0004210
  LUNO+3 :    3 B1 0.0000045

Properties will be evaluated at   0.000000,   0.000000,   0.000000 Bohr

Properties computed using the SCF density matrix

  Nuclear Dipole Moment: (a.u.)
     X:     0.0000      Y:     0.0000      Z:    -1.7834

  Electronic Dipole Moment: (a.u.)
     X:     0.0000      Y:     0.0000      Z:     1.5297

  Dipole Moment: (a.u.)
     X:     0.0000      Y:     0.0000      Z:    -0.2537     Total:     0.2537

  Dipole Moment: (Debye)
     X:     0.0000      Y:     0.0000      Z:    -0.6450     Total:     0.6450

*** tstop() called on n412-050.vsc4.prov at Sat Oct 31 08:05:32 2020
Module time:
	user time   =    1790.91 seconds =      29.85 minutes
	system time =     189.34 seconds =       3.16 minutes
	total time  =       2264 seconds =      37.73 minutes
Total time:
	user time   =    1790.91 seconds =      29.85 minutes
	system time =     189.34 seconds =       3.16 minutes
	total time  =       2264 seconds =      37.73 minutes

*** tstart() called on n412-050.vsc4.prov
*** at Sat Oct 31 08:05:32 2020

	Wfn Parameters:
	--------------------
	Wavefunction         = CCSD
	Number of irreps     = 4
	Number of MOs        = 452
	Number of active MOs = 447
	AO-Basis             = NONE
	Semicanonical        = false
	Reference            = UHF
	Print Level          = 1

	IRREP	# MOs	# FZDC	# DOCC	# SOCC	# VIRT	# FZVR
	-----	-----	------	------	------	------	------
	 A1	   147	    3	    2	    0	    142	    0
	 A2	   82	    0	    0	    0	    82	    0
	 B1	   98	    1	    0	    1	    96	    0
	 B2	   125	    1	    1	    0	    123	    0
	Transforming integrals...
	IWL integrals will be deleted.
	(OO|OO)...
	Presorting SO-basis two-electron integrals.
	Sorting File: SO Ints (nn|nn) nbuckets = 1
	Transforming the one-electron integrals and constructing Fock matrices
	Starting AA/AB first half-transformation.

      * MP2 total energy                      = -342.047331155209918
      * CCSD total energy                     = -342.069344633236199
*** Psi4 exiting successfully. Buy a developer a beer!
