                               Psi4 1.4a3.dev88

  ==> Input File <==

--------------------------------------------------------------------------
# Any line starting with the # character is a comment line
memory 250000 mb
molecule molecule{
-1 1
C          0.0000000000        0.0000000000        0.6411129114
N          0.0000000000        0.0000000000       -0.5497659819
}

set {
  reference rhf
  basis aug-cc-pV(t+d)Z
  scf_type OUT_OF_CORE
  freeze_core true
}

energy('ccsd(t)')
--------------------------------------------------------------------------

    Molecular point group: c2v

    Geometry (in Angstrom), charge = -1, multiplicity = 1:

       Center              X                  Y                   Z               Mass
    ------------   -----------------  -----------------  -----------------  -----------------
         C            0.000000000000     0.000000000000     0.641307457355    12.000000000000
         N            0.000000000000     0.000000000000    -0.549571435945    14.003074004430

  Charge       = -1
  Multiplicity = 1
  Basis Set: AUG-CC-PV(T+D)Z
    Blend: AUG-CC-PV(T+D)Z

    Orbital Energies [Eh]
    ---------------------

    Doubly Occupied:

       1A1   -15.292556     2A1   -10.976855     3A1    -0.919272
       4A1    -0.344839     5A1    -0.193871     1B1    -0.189417
       1B2    -0.189417

  @RHF Final Energy:   -92.34005086114247

   => Energetics <=

    Nuclear Repulsion Energy =             18.6630588325836442
    One-Electron Energy =                -165.7937640265818686
    Two-Electron Energy =                  54.7906543328557376
    Total Energy =                        -92.3400508611424726

  Dipole Moment: [D]
     X:     0.0000      Y:     0.0000      Z:    -0.3512     Total:     0.3512

      * MP2 total energy                      =  -92.693083382959486
      * CCSD total energy                     =  -92.692557301649458
      * CCSD(T) total energy                  =  -92.713044846681484
*** Psi4 exiting successfully. Buy a developer a beer!
