                               Psi4 1.4a3.dev88

  ==> Input File <==

--------------------------------------------------------------------------
# Any line starting with the # character is a comment line
memory 250000 mb
molecule molecule{
-1 1
C          0.0000000000        0.0000000000        0.6411129114
N          0.0000000000        0.0000000000       -0.5497659819
}

set {
  reference rhf
  basis aug-cc-pV(d+d)Z
  scf_type OUT_OF_CORE
  freeze_core true
}

energy('ccsd(t)')
--------------------------------------------------------------------------

    Molecular point group: c2v

    Geometry (in Angstrom), charge = -1, multiplicity = 1:

       Center              X                  Y                   Z               Mass
    ------------   -----------------  -----------------  -----------------  -----------------
         C            0.000000000000     0.000000000000     0.641307457355    12.000000000000
         N            0.000000000000     0.000000000000    -0.549571435945    14.003074004430

  Charge       = -1
  Multiplicity = 1
  Basis Set: AUG-CC-PV(D+D)Z
    Blend: AUG-CC-PV(D+D)Z

    Orbital Energies [Eh]
    ---------------------

    Doubly Occupied:

       1A1   -15.303096     2A1   -10.986391     3A1    -0.923686
       4A1    -0.345947     5A1    -0.193201     1B2    -0.189561
       1B1    -0.189561

  @RHF Final Energy:   -92.32261991460945

   => Energetics <=

    Nuclear Repulsion Energy =             18.6630588325836442
    One-Electron Energy =                -165.7084708315775856
    Two-Electron Energy =                  54.7227920843844799
    Total Energy =                        -92.3226199146094473

  Dipole Moment: [D]
     X:     0.0000      Y:     0.0000      Z:    -0.3555     Total:     0.3555

      * MP2 total energy                      =  -92.620233582201280
      * CCSD total energy                     =  -92.625126125461449
      * CCSD(T) total energy                  =  -92.640380081706809
*** Psi4 exiting successfully. Buy a developer a beer!
