                               Psi4 1.4a3.dev88

  ==> Input File <==

--------------------------------------------------------------------------
# Any line starting with the # character is a comment line
memory 250000 mb
molecule molecule{
-1 1
C          0.0000000000        0.0000000000        0.6411129114
N          0.0000000000        0.0000000000       -0.5497659819
}

set {
  reference rhf
  basis aug-cc-pV(5+d)Z
  scf_type OUT_OF_CORE
  freeze_core true
}

energy('ccsd(t)')
--------------------------------------------------------------------------

    Molecular point group: c2v

    Geometry (in Angstrom), charge = -1, multiplicity = 1:

       Center              X                  Y                   Z               Mass
    ------------   -----------------  -----------------  -----------------  -----------------
         C            0.000000000000     0.000000000000     0.641307457355    12.000000000000
         N            0.000000000000     0.000000000000    -0.549571435945    14.003074004430

  Charge       = -1
  Multiplicity = 1
  Basis Set: AUG-CC-PV(5+D)Z
    Blend: AUG-CC-PV(5+D)Z

    Orbital Energies [Eh]
    ---------------------

    Doubly Occupied:

       1A1   -15.290314     2A1   -10.975575     3A1    -0.918458
       4A1    -0.344651     5A1    -0.193947     1B2    -0.189410
       1B1    -0.189410

  @RHF Final Energy:   -92.34629099707954

   => Energetics <=

    Nuclear Repulsion Energy =             18.6630588325836442
    One-Electron Energy =                -165.8151695603723965
    Two-Electron Energy =                  54.8058197307092030
    Total Energy =                        -92.3462909970795351

  Dipole Moment: [D]
     X:     0.0000      Y:     0.0000      Z:    -0.3556     Total:     0.3556

      * MP2 total energy                      =  -92.727216200070558
      * CCSD total energy                     =  -92.719969218175137
      * CCSD(T) total energy                  =  -92.742098098738111
*** Psi4 exiting successfully. Buy a developer a beer!
