                               Psi4 1.4a3.dev88

  ==> Input File <==

--------------------------------------------------------------------------
# Any line starting with the # character is a comment line
memory 250000 mb
molecule molecule{
0 3
Si          0.0000000000        0.0000000000        0.0000000000
}

set {
  reference uhf
  basis aug-cc-pv(5+d)z
  scf_type OUT_OF_CORE
  freeze_core true
}

energy('ccsd(t)')
--------------------------------------------------------------------------

    Molecular point group: d2h
    Geometry (in Angstrom), charge = 0, multiplicity = 3:

       Center              X                  Y                   Z               Mass
    ------------   -----------------  -----------------  -----------------  -----------------
         SI           0.000000000000     0.000000000000     0.000000000000    27.976926534650

  Charge       = 0
  Multiplicity = 3
  Basis Set: AUG-CC-PV(5+D)Z
    Blend: AUG-CC-PV(5+D)Z

    Orbital Energies [Eh]
    ---------------------

    Alpha Occupied:

       1Ag   -68.816332     2Ag    -6.160621     1B2u   -4.268952
       1B3u   -4.268952     1B1u   -4.258123     3Ag    -0.619870
       2B3u   -0.301411     2B2u   -0.301411

    Alpha Virtual:

       2B1u   -0.010097     4Ag     0.046935     3B2u    0.050819
       3B3u    0.050819     3B1u    0.058462     1B2g    0.110927
       1B3g    0.110927     5Ag     0.111097     1B1g    0.111180
       6Ag     0.111180     4B2u    0.247537     4B3u    0.247537
       4B1u    0.263623     7Ag     0.273671     5B2u    0.283189
       5B3u    0.283189     5B1u    0.283300     1Au     0.285356
       6B1u    0.285356     6B3u    0.289762     6B2u    0.289762
       8Ag     0.296772     2B1g    0.296772     2B3g    0.308921
       2B2g    0.308921     9Ag     0.314189    10Ag     0.723728
       3B2g    0.724739     3B3g    0.724739    11Ag     0.727891
       3B1g    0.727891     4B3g    0.733359     4B2g    0.733359
       4B1g    0.740375    12Ag     0.740375    13Ag     0.750689
       5B1g    0.750689     5B3g    0.753225     5B2g    0.753225
      14Ag     0.754517     7B1u    0.756215     7B2u    0.757558
       7B3u    0.757558     2Au     0.761422     8B1u    0.761422
       8B3u    0.767277     8B2u    0.767277     9B2u    0.911163
       9B3u    0.911163     9B1u    0.918621    15Ag     1.042289
      10B1u    1.688713    10B2u    1.690666    10B3u    1.690666
       3Au     1.696500    11B1u    1.696500    11B2u    1.706126
      11B3u    1.706126    16Ag     1.759238     6B2g    1.763663
       6B3g    1.763663     6B1g    1.777354    17Ag     1.777354
      12B1u    1.821876    12B3u    1.822972    12B2u    1.822972
       4Au     1.826274    13B1u    1.826274    13B3u    1.831822
      13B2u    1.831822    18Ag     1.838741     5Au     1.839681
      14B1u    1.839681     7B2g    1.840179     7B3g    1.840179
       7B1g    1.844526    19Ag     1.844526    14B2u    1.849941
      14B3u    1.849941     8B2g    1.851921     8B3g    1.851921
       8B1g    1.863017    20Ag     1.863017    15B1u    3.119528
      15B2u    3.127376    15B3u    3.127376    16B1u    3.543839
      16B2u    3.546604    16B3u    3.546604     6Au     3.554990
      17B1u    3.554990    17B2u    3.569240    17B3u    3.569240
      21Ag     3.672989     9B3g    3.679693     9B2g    3.679693
       9B1g    3.696936    22Ag     3.696936    23Ag     3.883190
      24Ag     4.196018    10B3g    4.197908    10B2g    4.197908
      10B1g    4.203612    25Ag     4.203612    11B2g    4.213236
      11B3g    4.213236    26Ag     4.226967    11B1g    4.226967
      18B1u    4.238035    18B3u    4.239468    18B2u    4.239468
      19B1u    4.243781     7Au     4.243781    19B2u    4.251024
      19B3u    4.251024    20B1u    4.261275     8Au     4.261275
      20B2u    4.274646    20B3u    4.274646    27Ag     9.738358
      12B3g    9.741402    12B2g    9.741402    12B1g    9.750754
      28Ag     9.750754    21B1u   12.919639    21B2u   12.923488
      21B3u   12.923488    29Ag    34.435997

    Beta Occupied:

       1Ag   -68.806007     2Ag    -6.149756     1B1u   -4.253114
       1B2u   -4.239862     1B3u   -4.239862     3Ag    -0.462781

    Beta Virtual:

       2B1u    0.005048     2B2u    0.030710     2B3u    0.030710
       4Ag     0.053110     3B1u    0.063361     3B2u    0.086536
       3B3u    0.086536     5Ag     0.115714     1B3g    0.117380
       1B2g    0.117380     6Ag     0.123742     1B1g    0.123742
       4B1u    0.270938     4B2u    0.286256     4B3u    0.286256
       5B1u    0.286635     6B1u    0.290715     1Au     0.290715
       7Ag     0.293946     5B3u    0.297556     5B2u    0.297556
       6B2u    0.299554     6B3u    0.299554     8Ag     0.340095
       2B3g    0.345257     2B2g    0.345257     9Ag     0.367171
       2B1g    0.367171    10Ag     0.730687     3B2g    0.732071
       3B3g    0.732071    11Ag     0.736223     3B1g    0.736223
       4B3g    0.743235     4B2g    0.743235    12Ag     0.753470
       4B1g    0.753470     7B1u    0.771382     7B2u    0.774937
       7B3u    0.774937    13Ag     0.778494     2Au     0.785225
       8B1u    0.785225     5B3g    0.786538     5B2g    0.786538
       8B3u    0.802806     8B2u    0.802806     5B1g    0.815534
      14Ag     0.815534     9B1u    0.927801     9B2u    0.964810
       9B3u    0.964810    15Ag     1.069954    10B1u    1.707581
      10B2u    1.712422    10B3u    1.712422     3Au     1.727111
      11B1u    1.727111    11B2u    1.752433    11B3u    1.752433
      16Ag     1.771522     6B2g    1.779729     6B3g    1.779729
       6B1g    1.808270    17Ag     1.808270    12B1u    1.831494
      12B3u    1.832988    12B2u    1.832988     4Au     1.837493
      13B1u    1.837493    13B3u    1.845083    13B2u    1.845083
      18Ag     1.853898     5Au     1.855906    14B1u    1.855906
       7B3g    1.856390     7B2g    1.856390     7B1g    1.863979
      19Ag     1.863979    14B2u    1.870364    14B3u    1.870364
       8B2g    1.876621     8B3g    1.876621     8B1g    1.896172
      20Ag     1.896172    15B1u    3.125960    15B2u    3.161156
      15B3u    3.161156    16B1u    3.555209    16B2u    3.559780
      16B3u    3.559780     6Au     3.573649    17B1u    3.573649
      17B2u    3.597493    17B3u    3.597493    21Ag     3.678163
       9B3g    3.689040     9B2g    3.689040     9B1g    3.714421
      22Ag     3.714421    23Ag     3.902583    24Ag     4.208677
      10B3g    4.211594    10B2g    4.211594    10B1g    4.220422
      25Ag     4.220422    11B2g    4.235390    11B3g    4.235390
      18B1u    4.249580    18B3u    4.251597    18B2u    4.251597
      26Ag     4.256959    11B1g    4.256959    19B1u    4.257675
       7Au     4.257675    19B2u    4.267902    19B3u    4.267902
      20B1u    4.282425     8Au     4.282425    20B2u    4.301471
      20B3u    4.301471    27Ag     9.744067    12B3g    9.749123
      12B2g    9.749123    12B1g    9.764639    28Ag     9.764639
      21B1u   12.923815    21B2u   12.943796    21B3u   12.943796
      29Ag    34.444702

    Final Occupation by Irrep:
             Ag   B1g   B2g   B3g    Au   B1u   B2u   B3u
    DOCC [     3,    0,    0,    0,    0,    1,    1,    1 ]
    SOCC [     0,    0,    0,    0,    0,    0,    1,    1 ]

  @UHF Final Energy:  -288.85883046378024

   => Energetics <=

    Nuclear Repulsion Energy =              0.0000000000000000
    One-Electron Energy =                -400.5706096601801391
    Two-Electron Energy =                 111.7117791963999167
    Total Energy =                       -288.8588304637802366

  UHF NO Occupations:
  HONO-2 :    3 Ag 1.9921386
  HONO-1 :    2B3u 1.0000000
  HONO-0 :    2B2u 1.0000000
  LUNO+0 :    4 Ag 0.0078614
  LUNO+1 :    3B3u 0.0000049
  LUNO+2 :    3B2u 0.0000049
  LUNO+3 :    2B1u 0.0000005

Computation Completed

Properties will be evaluated at   0.000000,   0.000000,   0.000000 [a0]

Properties computed using the SCF density matrix

  Nuclear Dipole Moment: [e a0]
     X:     0.0000      Y:     0.0000      Z:     0.0000

  Electronic Dipole Moment: [e a0]
     X:     0.0000      Y:     0.0000      Z:     0.0000

  Dipole Moment: [e a0]
     X:     0.0000      Y:     0.0000      Z:     0.0000     Total:     0.0000

  Dipole Moment: [D]
     X:     0.0000      Y:     0.0000      Z:     0.0000     Total:     0.0000

*** tstop() called on n412-041.vsc4.prov at Wed Jan 20 22:00:26 2021
Module time:
	user time   =      36.79 seconds =       0.61 minutes
	system time =       3.08 seconds =       0.05 minutes
	total time  =         26 seconds =       0.43 minutes
Total time:
	user time   =      36.79 seconds =       0.61 minutes
	system time =       3.08 seconds =       0.05 minutes
	total time  =         26 seconds =       0.43 minutes

*** tstart() called on n412-041.vsc4.prov
*** at Wed Jan 20 22:00:26 2021

	Wfn Parameters:
	--------------------
	Wavefunction         = CCSD_T
	Number of irreps     = 8
	Number of MOs        = 136
	Number of active MOs = 131
	AO-Basis             = NONE
	Semicanonical        = false
	Reference            = UHF
	Print Level          = 1

	IRREP	# MOs	# FZDC	# DOCC	# SOCC	# VIRT	# FZVR
	-----	-----	------	------	------	------	------
	 Ag	   29	    2	    1	    0	    26	    0
	 B1g	   12	    0	    0	    0	    12	    0
	 B2g	   12	    0	    0	    0	    12	    0
	 B3g	   12	    0	    0	    0	    12	    0
	 Au	   8	    0	    0	    0	    8	    0
	 B1u	   21	    1	    0	    0	    20	    0
	 B2u	   21	    1	    0	    1	    19	    0
	 B3u	   21	    1	    0	    1	    19	    0
	Transforming integrals...
	IWL integrals will be deleted.
	(OO|OO)...
	Presorting SO-basis two-electron integrals.
	Sorting File: SO Ints (nn|nn) nbuckets = 1
	Constructing frozen core operators
	Starting AA/AB first half-transformation.
	Sorting AA/AB half-transformed integrals.
	Starting BB first half-transformation.
	Sorting BB half-transformed integrals.
	First half integral transformation complete.
	Starting AA second half-transformation.
	Starting AB second half-transformation.
	Starting BB second half-transformation.
	Two-electron integral transformation complete.
	(OO|OV)...
	Starting AA second half-transformation.
	Starting AB second half-transformation.
	Starting BB second half-transformation.
	Two-electron integral transformation complete.
	(OO|VV)...
	Starting AA second half-transformation.
	Starting AB second half-transformation.
	Starting BB second half-transformation.
	Two-electron integral transformation complete.
	(OV|OO)...
	Starting AA/AB first half-transformation.
	Sorting AA/AB half-transformed integrals.
	Starting BB first half-transformation.
	Sorting BB half-transformed integrals.
	First half integral transformation complete.
	Starting AA second half-transformation.
	Starting AB second half-transformation.
	Starting BB second half-transformation.
	Two-electron integral transformation complete.
	(OV|OV)...
	Starting AA second half-transformation.
	Starting AB second half-transformation.
	Starting BB second half-transformation.
	Two-electron integral transformation complete.
	(OV|VV)...
	Starting AA second half-transformation.
	Starting AB second half-transformation.
	Starting BB second half-transformation.
	Two-electron integral transformation complete.
	(VV|OO)...
	Starting AA/AB first half-transformation.
	Sorting AA/AB half-transformed integrals.
	Starting BB first half-transformation.
	Sorting BB half-transformed integrals.
	First half integral transformation complete.
	Starting AA second half-transformation.
	Starting AB second half-transformation.
	Starting BB second half-transformation.
	Two-electron integral transformation complete.
	(VV|OV)...
	Starting AA second half-transformation.
	Starting AB second half-transformation.
	Starting BB second half-transformation.
	Two-electron integral transformation complete.
	(VV|VV)...
	Starting AA second half-transformation.
	Starting AB second half-transformation.
	Starting BB second half-transformation.
	Two-electron integral transformation complete.
	Frozen core energy     =   -285.17675629928448

	Size of irrep 0 of <AB|CD> integrals:      1.173 (MW) /      9.383 (MB)
	Size of irrep 1 of <AB|CD> integrals:      0.955 (MW) /      7.636 (MB)
	Size of irrep 2 of <AB|CD> integrals:      0.976 (MW) /      7.809 (MB)
	Size of irrep 3 of <AB|CD> integrals:      0.976 (MW) /      7.809 (MB)
	Size of irrep 4 of <AB|CD> integrals:      0.817 (MW) /      6.538 (MB)
	Size of irrep 5 of <AB|CD> integrals:      1.149 (MW) /      9.193 (MB)
	Size of irrep 6 of <AB|CD> integrals:      1.119 (MW) /      8.955 (MB)
	Size of irrep 7 of <AB|CD> integrals:      1.119 (MW) /      8.955 (MB)
	Total:                                     8.285 (MW) /     66.279 (MB)

	Size of irrep 0 of <ab|cd> integrals:      1.257 (MW) /     10.053 (MB)
	Size of irrep 1 of <ab|cd> integrals:      1.032 (MW) /      8.258 (MB)
	Size of irrep 2 of <ab|cd> integrals:      1.032 (MW) /      8.258 (MB)
	Size of irrep 3 of <ab|cd> integrals:      1.032 (MW) /      8.258 (MB)
	Size of irrep 4 of <ab|cd> integrals:      0.861 (MW) /      6.889 (MB)
	Size of irrep 5 of <ab|cd> integrals:      1.201 (MW) /      9.610 (MB)
	Size of irrep 6 of <ab|cd> integrals:      1.201 (MW) /      9.610 (MB)
	Size of irrep 7 of <ab|cd> integrals:      1.201 (MW) /      9.610 (MB)
	Total:                                     8.818 (MW) /     70.546 (MB)

	Size of irrep 0 of <Ab|Cd> integrals:      5.438 (MW) /     43.506 (MB)
	Size of irrep 1 of <Ab|Cd> integrals:      3.968 (MW) /     31.745 (MB)
	Size of irrep 2 of <Ab|Cd> integrals:      4.016 (MW) /     32.128 (MB)
	Size of irrep 3 of <Ab|Cd> integrals:      4.016 (MW) /     32.128 (MB)
	Size of irrep 4 of <Ab|Cd> integrals:      3.356 (MW) /     26.850 (MB)
	Size of irrep 5 of <Ab|Cd> integrals:      4.700 (MW) /     37.602 (MB)
	Size of irrep 6 of <Ab|Cd> integrals:      4.640 (MW) /     37.118 (MB)
	Size of irrep 7 of <Ab|Cd> integrals:      4.640 (MW) /     37.118 (MB)
	Total:                                    34.774 (MW) /    278.194 (MB)

	Size of irrep 0 of <IA|BC> integrals:      0.147 (MW) /      1.175 (MB)
	Size of irrep 1 of <IA|BC> integrals:      0.098 (MW) /      0.782 (MB)
	Size of irrep 2 of <IA|BC> integrals:      0.079 (MW) /      0.632 (MB)
	Size of irrep 3 of <IA|BC> integrals:      0.079 (MW) /      0.632 (MB)
	Size of irrep 4 of <IA|BC> integrals:      0.058 (MW) /      0.463 (MB)
	Size of irrep 5 of <IA|BC> integrals:      0.094 (MW) /      0.755 (MB)
	Size of irrep 6 of <IA|BC> integrals:      0.121 (MW) /      0.965 (MB)
	Size of irrep 7 of <IA|BC> integrals:      0.121 (MW) /      0.965 (MB)
	Total:                                     0.796 (MW) /      6.368 (MB)

	Size of irrep 0 of <ia|bc> integrals:      0.062 (MW) /      0.493 (MB)
	Size of irrep 1 of <ia|bc> integrals:      0.024 (MW) /      0.195 (MB)
	Size of irrep 2 of <ia|bc> integrals:      0.024 (MW) /      0.195 (MB)
	Size of irrep 3 of <ia|bc> integrals:      0.024 (MW) /      0.195 (MB)
	Size of irrep 4 of <ia|bc> integrals:      0.015 (MW) /      0.119 (MB)
	Size of irrep 5 of <ia|bc> integrals:      0.044 (MW) /      0.351 (MB)
	Size of irrep 6 of <ia|bc> integrals:      0.044 (MW) /      0.351 (MB)
	Size of irrep 7 of <ia|bc> integrals:      0.044 (MW) /      0.351 (MB)
	Total:                                     0.281 (MW) /      2.250 (MB)

	Size of irrep 0 of <Ia|Bc> integrals:      0.154 (MW) /      1.231 (MB)
	Size of irrep 1 of <Ia|Bc> integrals:      0.104 (MW) /      0.829 (MB)
	Size of irrep 2 of <Ia|Bc> integrals:      0.080 (MW) /      0.641 (MB)
	Size of irrep 3 of <Ia|Bc> integrals:      0.080 (MW) /      0.641 (MB)
	Size of irrep 4 of <Ia|Bc> integrals:      0.059 (MW) /      0.469 (MB)
	Size of irrep 5 of <Ia|Bc> integrals:      0.095 (MW) /      0.763 (MB)
	Size of irrep 6 of <Ia|Bc> integrals:      0.125 (MW) /      0.999 (MB)
	Size of irrep 7 of <Ia|Bc> integrals:      0.125 (MW) /      0.999 (MB)
	Total:                                     0.822 (MW) /      6.574 (MB)

	Size of irrep 0 of <iA|bC> integrals:      0.061 (MW) /      0.485 (MB)
	Size of irrep 1 of <iA|bC> integrals:      0.024 (MW) /      0.191 (MB)
	Size of irrep 2 of <iA|bC> integrals:      0.024 (MW) /      0.192 (MB)
	Size of irrep 3 of <iA|bC> integrals:      0.024 (MW) /      0.192 (MB)
	Size of irrep 4 of <iA|bC> integrals:      0.015 (MW) /      0.117 (MB)
	Size of irrep 5 of <iA|bC> integrals:      0.043 (MW) /      0.347 (MB)
	Size of irrep 6 of <iA|bC> integrals:      0.041 (MW) /      0.327 (MB)
	Size of irrep 7 of <iA|bC> integrals:      0.041 (MW) /      0.327 (MB)
	Total:                                     0.273 (MW) /      2.180 (MB)

	Size of irrep 0 of tIjAb amplitudes:       0.002 (MW) /      0.019 (MB)
	Size of irrep 1 of tIjAb amplitudes:       0.000 (MW) /      0.000 (MB)
	Size of irrep 2 of tIjAb amplitudes:       0.000 (MW) /      0.000 (MB)
	Size of irrep 3 of tIjAb amplitudes:       0.000 (MW) /      0.000 (MB)
	Size of irrep 4 of tIjAb amplitudes:       0.000 (MW) /      0.000 (MB)
	Size of irrep 5 of tIjAb amplitudes:       0.000 (MW) /      0.000 (MB)
	Size of irrep 6 of tIjAb amplitudes:       0.002 (MW) /      0.017 (MB)
	Size of irrep 7 of tIjAb amplitudes:       0.002 (MW) /      0.017 (MB)
	Total:                                     0.007 (MW) /      0.053 (MB)

	Nuclear Rep. energy          =      0.00000000000000
	SCF energy                   =   -288.85883046378024
	One-electron energy          =     -5.67867618588273
	Two-electron (AA) energy     =      0.86385458300158
	Two-electron (BB) energy     =      0.00000000000000
	Two-electron (AB) energy     =      1.13274743838476
	Two-electron energy          =      1.99660202138634
	Reference energy             =   -288.85883046378086

*** tstop() called on n412-041.vsc4.prov at Wed Jan 20 22:00:46 2021
Module time:
	user time   =       4.83 seconds =       0.08 minutes
	system time =       2.75 seconds =       0.05 minutes
	total time  =         20 seconds =       0.33 minutes
Total time:
	user time   =      41.62 seconds =       0.69 minutes
	system time =       5.83 seconds =       0.10 minutes
	total time  =         46 seconds =       0.77 minutes
            **************************
            *                        *
            *        CCENERGY        *
            *                        *
            **************************

    Nuclear Rep. energy (wfn)     =    0.000000000000000
    SCF energy          (wfn)     = -288.858830463780237
    Reference energy    (file100) = -288.858830463780862

    Input parameters:
    -----------------
    Wave function   =     CCSD_T
    Reference wfn   =     UHF
    Brueckner       =     No
    Memory (Mbytes) =     250000.0
    Maxiter         =     50
    R_Convergence   =     1.0e-07
    E_Convergence   =     1.0e-06
    Restart         =     Yes
    DIIS            =     Yes
    AO Basis        =     NONE
    ABCD            =     NEW
    Cache Level     =     2
    Cache Type      =     LRU
    Print Level     =     1
    Num. of threads =     48
    # Amps to Print =     10
    Print MP2 Amps? =     No
    Analyze T2 Amps =     No
    Print Pair Ener =     No
    Local CC        =     No
    SCS-MP2         =     False
    SCSN-MP2        =     False
    SCS-CCSD        =     False

MP2 correlation energy -0.0618653484608033
                Solving CC Amplitude Equations
                ------------------------------
  Iter             Energy              RMS        T1Diag      D1Diag    New D1Diag    D2Diag
  ----     ---------------------    ---------   ----------  ----------  ----------   --------
     0        -0.061865348460803    0.000e+00    0.000000    0.000000    0.000000    0.000000
     1        -0.071649409187098    5.275e-02    0.009760    0.000000    0.000000    0.000000
     2        -0.077044679202505    2.197e-02    0.016217    0.000000    0.000000    0.000000
     3        -0.077275884019259    5.502e-03    0.017956    0.000000    0.000000    0.000000
     4        -0.077391997224108    1.362e-03    0.018199    0.000000    0.000000    0.000000
     5        -0.077386220055247    3.841e-04    0.018212    0.000000    0.000000    0.000000
     6        -0.077384559792514    9.779e-05    0.018210    0.000000    0.000000    0.000000
     7        -0.077386194672292    2.024e-05    0.018214    0.000000    0.000000    0.000000

      * MP2 total energy                      = -288.920695812241661
      * CCSD total energy                     = -288.936216337971587
      * CCSD(T) total energy                     = -288.939187576883171
*** Psi4 exiting successfully. Buy a developer a beer!
