                               Psi4 1.4a3.dev88

  ==> Input File <==

--------------------------------------------------------------------------
# Any line starting with the # character is a comment line
memory 250000 mb
molecule molecule{
0 3
Si          0.0000000000        0.0000000000        0.0000000000
}

set {
  reference uhf
  basis aug-cc-pV(t+d)Z
  scf_type OUT_OF_CORE
  freeze_core true
}

energy('ccsd(t)')
--------------------------------------------------------------------------

    Molecular point group: d2h
    Geometry (in Angstrom), charge = 0, multiplicity = 3:

       Center              X                  Y                   Z               Mass
    ------------   -----------------  -----------------  -----------------  -----------------
         SI           0.000000000000     0.000000000000     0.000000000000    27.976926534650

  Charge       = 0
  Multiplicity = 3
  Basis Set: AUG-CC-PV(T+D)Z
    Blend: AUG-CC-PV(T+D)Z

    Orbital Energies [Eh]
    ---------------------

    Alpha Occupied:

       1Ag   -68.817443     2Ag    -6.161832     1B2u   -4.269630
       1B3u   -4.269630     1B1u   -4.259216     3Ag    -0.620345
       2B2u   -0.301325     2B3u   -0.301325

    Alpha Virtual:

       2B1u   -0.010337     4Ag     0.066382     3B2u    0.070562
       3B3u    0.070562     3B1u    0.082658     5Ag     0.146566
       1B1g    0.146566     1B2g    0.149796     1B3g    0.149796
       6Ag     0.151284     2B1g    0.424159     7Ag     0.424159
       2B3g    0.438207     2B2g    0.438207     4B2u    0.439298
       4B3u    0.439298     8Ag     0.443734     4B1u    0.460808
       9Ag     0.464135     5B3u    0.486590     5B2u    0.486590
       5B1u    0.486851     1Au     0.489334     6B1u    0.489334
       6B2u    0.494850     6B3u    0.494850    10Ag     1.230130
       3B3g    1.232181     3B2g    1.232181     3B1g    1.238458
      11Ag     1.238458     7B1u    1.421745     7B2u    1.423253
       7B3u    1.423253     8B1u    1.427692     2Au     1.427692
       8B2u    1.434810     8B3u    1.434810     9B2u    2.498241
       9B3u    2.498241     9B1u    2.502238    12Ag     2.543937
      13Ag     4.767707     4B2g    4.771649     4B3g    4.771649
      14Ag     4.783611     4B1g    4.783611

    Beta Occupied:

       1Ag   -68.807863     2Ag    -6.150887     1B1u   -4.254328
       1B3u   -4.241136     1B2u   -4.241136     3Ag    -0.463753

    Beta Virtual:

       2B1u    0.005417     2B3u    0.034898     2B2u    0.034898
       4Ag     0.076585     3B1u    0.088931     3B3u    0.115307
       3B2u    0.115307     5Ag     0.161981     1B3g    0.164815
       1B2g    0.164815     6Ag     0.175709     1B1g    0.175709
       4B1u    0.470804     7Ag     0.477129     2B2g    0.486253
       2B3g    0.486253     8Ag     0.495091     4B3u    0.497446
       4B2u    0.497446     5B1u    0.498631     1Au     0.507686
       6B1u    0.507686     5B3u    0.510333     5B2u    0.510333
       2B1g    0.515986     9Ag     0.515986     6B2u    0.521953
       6B3u    0.521953    10Ag     1.248818     3B2g    1.257430
       3B3g    1.257430    11Ag     1.286901     3B1g    1.286901
       7B1u    1.446214     7B3u    1.451203     7B2u    1.451203
       8B1u    1.466403     2Au     1.466403     8B2u    1.492935
       8B3u    1.492935     9B1u    2.509319     9B3u    2.542393
       9B2u    2.542393    12Ag     2.566218    13Ag     4.772363
       4B2g    4.778047     4B3g    4.778047    14Ag     4.795607
       4B1g    4.795607

    Final Occupation by Irrep:
             Ag   B1g   B2g   B3g    Au   B1u   B2u   B3u
    DOCC [     3,    0,    0,    0,    0,    1,    1,    1 ]
    SOCC [     0,    0,    0,    0,    0,    0,    1,    1 ]

  @UHF Final Energy:  -288.85669141745905

   => Energetics <=

    Nuclear Repulsion Energy =              0.0000000000000000
    One-Electron Energy =                -400.5535327257708786
    Two-Electron Energy =                 111.6968413083118037
    Total Energy =                       -288.8566914174590465

  UHF NO Occupations:
  HONO-2 :    3 Ag 1.9922255
  HONO-1 :    2B3u 1.0000000
  HONO-0 :    2B2u 1.0000000
  LUNO+0 :    4 Ag 0.0077745
  LUNO+1 :    3B2u 0.0000045
  LUNO+2 :    3B3u 0.0000045
  LUNO+3 :    2B1u 0.0000004

Computation Completed

Properties will be evaluated at   0.000000,   0.000000,   0.000000 [a0]

Properties computed using the SCF density matrix

  Nuclear Dipole Moment: [e a0]
     X:     0.0000      Y:     0.0000      Z:     0.0000

  Electronic Dipole Moment: [e a0]
     X:     0.0000      Y:     0.0000      Z:     0.0000

  Dipole Moment: [e a0]
     X:     0.0000      Y:     0.0000      Z:     0.0000     Total:     0.0000

  Dipole Moment: [D]
     X:     0.0000      Y:     0.0000      Z:     0.0000     Total:     0.0000

*** tstop() called on n412-040.vsc4.prov at Tue Jan 26 18:04:05 2021
Module time:
	user time   =      12.80 seconds =       0.21 minutes
	system time =       1.10 seconds =       0.02 minutes
	total time  =          4 seconds =       0.07 minutes
Total time:
	user time   =      12.80 seconds =       0.21 minutes
	system time =       1.10 seconds =       0.02 minutes
	total time  =          4 seconds =       0.07 minutes

*** tstart() called on n412-040.vsc4.prov
*** at Tue Jan 26 18:04:05 2021

	Wfn Parameters:
	--------------------
	Wavefunction         = CCSD_T
	Number of irreps     = 8
	Number of MOs        = 55
	Number of active MOs = 50
	AO-Basis             = NONE
	Semicanonical        = false
	Reference            = UHF
	Print Level          = 1

	IRREP	# MOs	# FZDC	# DOCC	# SOCC	# VIRT	# FZVR
	-----	-----	------	------	------	------	------
	 Ag	   14	    2	    1	    0	    11	    0
	 B1g	   4	    0	    0	    0	    4	    0
	 B2g	   4	    0	    0	    0	    4	    0
	 B3g	   4	    0	    0	    0	    4	    0
	 Au	   2	    0	    0	    0	    2	    0
	 B1u	   9	    1	    0	    0	    8	    0
	 B2u	   9	    1	    0	    1	    7	    0
	 B3u	   9	    1	    0	    1	    7	    0
	Transforming integrals...
	IWL integrals will be deleted.
	(OO|OO)...
	Presorting SO-basis two-electron integrals.
	Sorting File: SO Ints (nn|nn) nbuckets = 1
	Constructing frozen core operators
	Starting AA/AB first half-transformation.
	Sorting AA/AB half-transformed integrals.
	Starting BB first half-transformation.
	Sorting BB half-transformed integrals.
	First half integral transformation complete.
	Starting AA second half-transformation.
	Starting AB second half-transformation.
	Starting BB second half-transformation.
	Two-electron integral transformation complete.
	(OO|OV)...
	Starting AA second half-transformation.
	Starting AB second half-transformation.
	Starting BB second half-transformation.
	Two-electron integral transformation complete.
	(OO|VV)...
	Starting AA second half-transformation.
	Starting AB second half-transformation.
	Starting BB second half-transformation.
	Two-electron integral transformation complete.
	(OV|OO)...
	Starting AA/AB first half-transformation.
	Sorting AA/AB half-transformed integrals.
	Starting BB first half-transformation.
	Sorting BB half-transformed integrals.
	First half integral transformation complete.
	Starting AA second half-transformation.
	Starting AB second half-transformation.
	Starting BB second half-transformation.
	Two-electron integral transformation complete.
	(OV|OV)...
	Starting AA second half-transformation.
	Starting AB second half-transformation.
	Starting BB second half-transformation.
	Two-electron integral transformation complete.
	(OV|VV)...
	Starting AA second half-transformation.
	Starting AB second half-transformation.
	Starting BB second half-transformation.
	Two-electron integral transformation complete.
	(VV|OO)...
	Starting AA/AB first half-transformation.
	Sorting AA/AB half-transformed integrals.
	Starting BB first half-transformation.
	Sorting BB half-transformed integrals.
	First half integral transformation complete.
	Starting AA second half-transformation.
	Starting AB second half-transformation.
	Starting BB second half-transformation.
	Two-electron integral transformation complete.
	(VV|OV)...
	Starting AA second half-transformation.
	Starting AB second half-transformation.
	Starting BB second half-transformation.
	Two-electron integral transformation complete.
	(VV|VV)...
	Starting AA second half-transformation.
	Starting AB second half-transformation.
	Starting BB second half-transformation.
	Two-electron integral transformation complete.
	Frozen core energy     =   -285.17532338913429

	Size of irrep 0 of <AB|CD> integrals:      0.021 (MW) /      0.166 (MB)
	Size of irrep 1 of <AB|CD> integrals:      0.016 (MW) /      0.125 (MB)
	Size of irrep 2 of <AB|CD> integrals:      0.017 (MW) /      0.135 (MB)
	Size of irrep 3 of <AB|CD> integrals:      0.017 (MW) /      0.135 (MB)
	Size of irrep 4 of <AB|CD> integrals:      0.012 (MW) /      0.097 (MB)
	Size of irrep 5 of <AB|CD> integrals:      0.023 (MW) /      0.185 (MB)
	Size of irrep 6 of <AB|CD> integrals:      0.021 (MW) /      0.168 (MB)
	Size of irrep 7 of <AB|CD> integrals:      0.021 (MW) /      0.168 (MB)
	Total:                                     0.147 (MW) /      1.179 (MB)

	Size of irrep 0 of <ab|cd> integrals:      0.025 (MW) /      0.200 (MB)
	Size of irrep 1 of <ab|cd> integrals:      0.020 (MW) /      0.157 (MB)
	Size of irrep 2 of <ab|cd> integrals:      0.020 (MW) /      0.157 (MB)
	Size of irrep 3 of <ab|cd> integrals:      0.020 (MW) /      0.157 (MB)
	Size of irrep 4 of <ab|cd> integrals:      0.014 (MW) /      0.111 (MB)
	Size of irrep 5 of <ab|cd> integrals:      0.026 (MW) /      0.205 (MB)
	Size of irrep 6 of <ab|cd> integrals:      0.026 (MW) /      0.205 (MB)
	Size of irrep 7 of <ab|cd> integrals:      0.026 (MW) /      0.205 (MB)
	Total:                                     0.174 (MW) /      1.396 (MB)

	Size of irrep 0 of <Ab|Cd> integrals:      0.122 (MW) /      0.974 (MB)
	Size of irrep 1 of <Ab|Cd> integrals:      0.070 (MW) /      0.558 (MB)
	Size of irrep 2 of <Ab|Cd> integrals:      0.073 (MW) /      0.583 (MB)
	Size of irrep 3 of <Ab|Cd> integrals:      0.073 (MW) /      0.583 (MB)
	Size of irrep 4 of <Ab|Cd> integrals:      0.052 (MW) /      0.416 (MB)
	Size of irrep 5 of <Ab|Cd> integrals:      0.097 (MW) /      0.779 (MB)
	Size of irrep 6 of <Ab|Cd> integrals:      0.093 (MW) /      0.744 (MB)
	Size of irrep 7 of <Ab|Cd> integrals:      0.093 (MW) /      0.744 (MB)
	Total:                                     0.673 (MW) /      5.381 (MB)

	Size of irrep 0 of <IA|BC> integrals:      0.008 (MW) /      0.067 (MB)
	Size of irrep 1 of <IA|BC> integrals:      0.004 (MW) /      0.036 (MB)
	Size of irrep 2 of <IA|BC> integrals:      0.004 (MW) /      0.029 (MB)
	Size of irrep 3 of <IA|BC> integrals:      0.004 (MW) /      0.029 (MB)
	Size of irrep 4 of <IA|BC> integrals:      0.002 (MW) /      0.018 (MB)
	Size of irrep 5 of <IA|BC> integrals:      0.005 (MW) /      0.039 (MB)
	Size of irrep 6 of <IA|BC> integrals:      0.006 (MW) /      0.051 (MB)
	Size of irrep 7 of <IA|BC> integrals:      0.006 (MW) /      0.051 (MB)
	Total:                                     0.040 (MW) /      0.320 (MB)

	Size of irrep 0 of <ia|bc> integrals:      0.004 (MW) /      0.032 (MB)
	Size of irrep 1 of <ia|bc> integrals:      0.001 (MW) /      0.009 (MB)
	Size of irrep 2 of <ia|bc> integrals:      0.001 (MW) /      0.009 (MB)
	Size of irrep 3 of <ia|bc> integrals:      0.001 (MW) /      0.009 (MB)
	Size of irrep 4 of <ia|bc> integrals:      0.000 (MW) /      0.004 (MB)
	Size of irrep 5 of <ia|bc> integrals:      0.003 (MW) /      0.020 (MB)
	Size of irrep 6 of <ia|bc> integrals:      0.003 (MW) /      0.020 (MB)
	Size of irrep 7 of <ia|bc> integrals:      0.003 (MW) /      0.020 (MB)
	Total:                                     0.016 (MW) /      0.124 (MB)

	Size of irrep 0 of <Ia|Bc> integrals:      0.009 (MW) /      0.075 (MB)
	Size of irrep 1 of <Ia|Bc> integrals:      0.005 (MW) /      0.042 (MB)
	Size of irrep 2 of <Ia|Bc> integrals:      0.004 (MW) /      0.030 (MB)
	Size of irrep 3 of <Ia|Bc> integrals:      0.004 (MW) /      0.030 (MB)
	Size of irrep 4 of <Ia|Bc> integrals:      0.002 (MW) /      0.018 (MB)
	Size of irrep 5 of <Ia|Bc> integrals:      0.005 (MW) /      0.040 (MB)
	Size of irrep 6 of <Ia|Bc> integrals:      0.007 (MW) /      0.056 (MB)
	Size of irrep 7 of <Ia|Bc> integrals:      0.007 (MW) /      0.056 (MB)
	Total:                                     0.044 (MW) /      0.349 (MB)

	Size of irrep 0 of <iA|bC> integrals:      0.004 (MW) /      0.031 (MB)
	Size of irrep 1 of <iA|bC> integrals:      0.001 (MW) /      0.008 (MB)
	Size of irrep 2 of <iA|bC> integrals:      0.001 (MW) /      0.009 (MB)
	Size of irrep 3 of <iA|bC> integrals:      0.001 (MW) /      0.009 (MB)
	Size of irrep 4 of <iA|bC> integrals:      0.000 (MW) /      0.004 (MB)
	Size of irrep 5 of <iA|bC> integrals:      0.002 (MW) /      0.020 (MB)
	Size of irrep 6 of <iA|bC> integrals:      0.002 (MW) /      0.017 (MB)
	Size of irrep 7 of <iA|bC> integrals:      0.002 (MW) /      0.017 (MB)
	Total:                                     0.014 (MW) /      0.114 (MB)

	Size of irrep 0 of tIjAb amplitudes:       0.000 (MW) /      0.003 (MB)
	Size of irrep 1 of tIjAb amplitudes:       0.000 (MW) /      0.000 (MB)
	Size of irrep 2 of tIjAb amplitudes:       0.000 (MW) /      0.000 (MB)
	Size of irrep 3 of tIjAb amplitudes:       0.000 (MW) /      0.000 (MB)
	Size of irrep 4 of tIjAb amplitudes:       0.000 (MW) /      0.000 (MB)
	Size of irrep 5 of tIjAb amplitudes:       0.000 (MW) /      0.000 (MB)
	Size of irrep 6 of tIjAb amplitudes:       0.000 (MW) /      0.002 (MB)
	Size of irrep 7 of tIjAb amplitudes:       0.000 (MW) /      0.002 (MB)
	Total:                                     0.001 (MW) /      0.008 (MB)

	Nuclear Rep. energy          =      0.00000000000000
	SCF energy                   =   -288.85669141745905
	One-electron energy          =     -5.67598811711437
	Two-electron (AA) energy     =      0.86259166215373
	Two-electron (BB) energy     =      0.00000000000000
	Two-electron (AB) energy     =      1.13202842663550
	Two-electron energy          =      1.99462008878923
	Reference energy             =   -288.85669141745944

*** tstop() called on n412-040.vsc4.prov at Tue Jan 26 18:04:06 2021
Module time:
	user time   =       0.17 seconds =       0.00 minutes
	system time =       0.19 seconds =       0.00 minutes
	total time  =          1 seconds =       0.02 minutes
Total time:
	user time   =      12.98 seconds =       0.22 minutes
	system time =       1.29 seconds =       0.02 minutes
	total time  =          5 seconds =       0.08 minutes
            **************************
            *                        *
            *        CCENERGY        *
            *                        *
            **************************

    Nuclear Rep. energy (wfn)     =    0.000000000000000
    SCF energy          (wfn)     = -288.856691417459047
    Reference energy    (file100) = -288.856691417459444

    Input parameters:
    -----------------
    Wave function   =     CCSD_T
    Reference wfn   =     UHF
    Brueckner       =     No
    Memory (Mbytes) =     250000.0
    Maxiter         =     50
    R_Convergence   =     1.0e-07
    E_Convergence   =     1.0e-06
    Restart         =     Yes
    DIIS            =     Yes
    AO Basis        =     NONE
    ABCD            =     NEW
    Cache Level     =     2
    Cache Type      =     LRU
    Print Level     =     1
    Num. of threads =     48
    # Amps to Print =     10
    Print MP2 Amps? =     No
    Analyze T2 Amps =     No
    Print Pair Ener =     No
    Local CC        =     No
    SCS-MP2         =     False
    SCSN-MP2        =     False
    SCS-CCSD        =     False

MP2 correlation energy -0.0566963502835403
                Solving CC Amplitude Equations
                ------------------------------
  Iter             Energy              RMS        T1Diag      D1Diag    New D1Diag    D2Diag
  ----     ---------------------    ---------   ----------  ----------  ----------   --------
     0        -0.056696350283540    0.000e+00    0.000000    0.000000    0.000000    0.000000
     1        -0.069036378163086    5.521e-02    0.008525    0.000000    0.000000    0.000000
     2        -0.074385936966226    2.216e-02    0.015152    0.000000    0.000000    0.000000
     3        -0.074812459540963    5.831e-03    0.017117    0.000000    0.000000    0.000000
     4        -0.074886422248891    1.351e-03    0.017372    0.000000    0.000000    0.000000
     5        -0.074864163886287    2.674e-04    0.017349    0.000000    0.000000    0.000000
     6        -0.074875702879672    6.742e-05    0.017364    0.000000    0.000000    0.000000
     7        -0.074872663082254    1.542e-05    0.017364    0.000000    0.000000    0.000000
     8        -0.074872941674810    3.063e-06    0.017365    0.000000    0.000000    0.000000
     9        -0.074872972616576    7.535e-07    0.017365    0.000000    0.000000    0.000000
    10        -0.074872975962594    2.033e-07    0.017365    0.000000    0.000000    0.000000
    11        -0.074872975457394    6.225e-08    0.017365    0.000000    0.000000    0.000000

    Iterations converged.

    Largest TIA Amplitudes:
              0   4        -0.0206389950
              0   2        -0.0177037723
              0   5         0.0107930237
              0   0        -0.0071428962
              0   6        -0.0053684403
              2  41         0.0052484453
              1  34         0.0052484453
              2  42         0.0050439976
              1  35         0.0050439975
              2  40        -0.0034127299

    Largest Tia Amplitudes:
              0   0         0.0084589769
              0   3        -0.0055307076
              0   1        -0.0035775398
              0   4        -0.0025744654
              0   8        -0.0016562639
              0   6        -0.0009160198
              0   9         0.0000461082

    Largest TIJAB Amplitudes:
      2   1  12   3         0.0346096987
      2   1  11   3         0.0269834052
      2   1  12   1         0.0269834052
      2   1  11   1         0.0262327149
      2   1  41  34        -0.0239231149
      2   1  20  16         0.0176841157
      1   0  25  20        -0.0161246265
      2   0  25  16        -0.0161246265
      1   0  34   5        -0.0152859286
      2   0  41   5        -0.0152859286

    Largest TIjAb Amplitudes:
      0   0  25  25         0.0769551077
      0   0  25  26         0.0532943363
      1   0  20  25        -0.0443774329
      2   0  16  25        -0.0443774329
      0   0  26  25         0.0423717205
      1   0   3  34         0.0374847376
      2   0  12  34        -0.0374847376
      1   0  12  42        -0.0374847376
      2   0   3  42        -0.0374847376
      0   0  25  27        -0.0360961900

    SCF energy       (wfn)                    = -288.856691417459047

      * MP2 total energy                      = -288.913387767742961
      * CCSD total energy                     = -288.931564392916812
      * CCSD(T) total energy                     = -288.934149297602460
*** Psi4 exiting successfully. Buy a developer a beer!
