                               Psi4 1.4a3.dev88

  ==> Input File <==

--------------------------------------------------------------------------
# Any line starting with the # character is a comment line
memory 250000 mb
molecule molecule{
0 3
Si          0.0000000000        0.0000000000        0.0000000000
}

set {
  reference uhf
  basis aug-cc-pV(6+d)Z
  scf_type OUT_OF_CORE
  freeze_core true
}

energy('ccsd(t)')
--------------------------------------------------------------------------

    Molecular point group: d2h
    Geometry (in Angstrom), charge = 0, multiplicity = 3:

       Center              X                  Y                   Z               Mass
    ------------   -----------------  -----------------  -----------------  -----------------
         SI           0.000000000000     0.000000000000     0.000000000000    27.976926534650

  Charge       = 0
  Multiplicity = 3
  Basis Set: AUG-CC-PV(6+D)Z
    Blend: AUG-CC-PV(6+D)Z

    Orbital Energies [Eh]
    ---------------------

    Alpha Occupied:

       1Ag   -68.816244     2Ag    -6.160602     1B3u   -4.268970
       1B2u   -4.268970     1B1u   -4.257978     3Ag    -0.619853
       2B3u   -0.301425     2B2u   -0.301425

    Alpha Virtual:

       2B1u   -0.010143     3B2u    0.041974     3B3u    0.041974
       4Ag     0.044475     3B1u    0.047727     1B3g    0.105550
       1B2g    0.105550     5Ag     0.105595     6Ag     0.106128
       1B1g    0.106128     4B2u    0.184976     4B3u    0.184976
       4B1u    0.198753     7Ag     0.250879     5B1u    0.264449
       5B3u    0.265140     5B2u    0.265140     1Au     0.267484
       6B1u    0.267484     6B3u    0.271683     6B2u    0.271683
       2B1g    0.280397     8Ag     0.280397     2B3g    0.291837
       2B2g    0.291837     9Ag     0.296753    10Ag     0.555558
       3B3g    0.556341     3B2g    0.556341    11Ag     0.558718
       3B1g    0.558718     4B3g    0.562723     4B2g    0.562723
      12Ag     0.568313     4B1g    0.568313     7B2u    0.597376
       7B3u    0.597376     7B1u    0.606920     5B1g    0.695907
      13Ag     0.695907     5B3g    0.699620     5B2g    0.699620
      14Ag     0.701407     8B1u    0.709022     8B3u    0.710039
       8B2u    0.710039     9B1u    0.713324     2Au     0.713324
       9B3u    0.719066     9B2u    0.719066    15Ag     0.900430
      10B1u    1.311028    10B2u    1.311899    10B3u    1.311899
       3Au     1.314524    11B1u    1.314524    11B3u    1.318939
      11B2u    1.318939     4Au     1.325200    12B1u    1.325200
      12B2u    1.333388    12B3u    1.333388    16Ag     1.385067
       6B2g    1.386470     6B3g    1.386470     6B1g    1.390664
      17Ag     1.390664     7B2g    1.397596     7B3g    1.397596
       7B1g    1.407173    18Ag     1.407173    13B1u    1.561370
      13B2u    1.563319    13B3u    1.563319    14B1u    1.569037
       5Au     1.569037    14B3u    1.578084    14B2u    1.578084
      19Ag     1.584047     8B2g    1.587913     8B3g    1.587913
       8B1g    1.599897    20Ag     1.599897    15B1u    1.691437
      15B2u    1.697031    15B3u    1.697031    21Ag     2.773803
       9B3g    2.774728     9B2g    2.774728     9B1g    2.777511
      22Ag     2.777511    10B2g    2.782168    10B3g    2.782168
      23Ag     2.788734    10B1g    2.788734    11B2g    2.797254
      11B3g    2.797254    24Ag     2.806287    25Ag     2.807793
      11B1g    2.807793    26Ag     2.893953    12B2g    2.895825
      12B3g    2.895825    27Ag     2.901445    12B1g    2.901445
      13B2g    2.910814    13B3g    2.910814    13B1g    2.923935
      28Ag     2.923935    16B1u    2.990564    16B2u    2.991885
      16B3u    2.991885    17B1u    2.995862     6Au     2.995862
      17B3u    3.002536    17B2u    3.002536     7Au     3.011975
      18B1u    3.011975    18B2u    3.024273    18B3u    3.024273
      19B1u    3.301635    19B2u    3.304435    19B3u    3.304435
       8Au     3.312911    20B1u    3.312911    20B3u    3.327269
      20B2u    3.327269    29Ag     3.387750    14B2g    3.393077
      14B3g    3.393077    14B1g    3.410779    30Ag     3.410779
      21B1u    4.788451    21B2u    4.800354    21B3u    4.800354
      31Ag     5.754472    15B2g    5.756488    15B3g    5.756488
      32Ag     5.762557    15B1g    5.762557    16B2g    5.772732
      16B3g    5.772732    16B1g    5.787104    33Ag     5.787104
      34Ag     6.011960    17B3g    6.013091    17B2g    6.013091
      17B1g    6.016497    35Ag     6.016497    18B2g    6.022208
      18B3g    6.022208    18B1g    6.030276    36Ag     6.030276
      19B2g    6.040777    19B3g    6.040777    19B1g    6.053811
      37Ag     6.053811    22B1u    6.325957    22B3u    6.327433
      22B2u    6.327433    23B1u    6.331874     9Au     6.331874
      23B3u    6.339325    23B2u    6.339325    10Au     6.349858
      24B1u    6.349858    24B2u    6.363573    24B3u    6.363573
      25B1u    6.924670    25B2u    6.927573    25B3u    6.927573
      11Au     6.936372    26B1u    6.936372    26B3u    6.951342
      26B2u    6.951342    38Ag     6.963385    20B2g    6.968406
      20B3g    6.968406    20B1g    6.983567    39Ag     6.983567
      40Ag     8.763598    41Ag    18.875665    21B2g   18.877369
      21B3g   18.877369    21B1g   18.882651    42Ag    18.882651
      27B1u   19.470320    27B2u   19.473532    27B3u   19.473532
      43Ag   177.941982

    Beta Occupied:

       1Ag   -68.805945     2Ag    -6.149643     1B1u   -4.252991
       1B3u   -4.239805     1B2u   -4.239805     3Ag    -0.462732

    Beta Virtual:

       2B1u    0.004731     2B2u    0.027986     2B3u    0.027986
       4Ag     0.050188     3B1u    0.052034     3B2u    0.074038
       3B3u    0.074038     5Ag     0.109569     1B2g    0.111096
       1B3g    0.111096     1B1g    0.116914     6Ag     0.116914
       4B1u    0.204460     4B2u    0.226881     4B3u    0.226881
       5B1u    0.267419     5B3u    0.268558     5B2u    0.268558
       7Ag     0.269353     1Au     0.272011     6B1u    0.272011
       6B3u    0.278257     6B2u    0.278257     8Ag     0.320830
       2B3g    0.325732     2B2g    0.325732     2B1g    0.346198
       9Ag     0.346198    10Ag     0.559337     3B3g    0.560318
       3B2g    0.560318    11Ag     0.563282     3B1g    0.563282
       4B2g    0.568307     4B3g    0.568307    12Ag     0.575683
       4B1g    0.575683     7B1u    0.614633     7B2u    0.645845
       7B3u    0.645845     8B1u    0.723074     8B3u    0.726111
       8B2u    0.726111    13Ag     0.726599     5B2g    0.734540
       5B3g    0.734540     9B1u    0.735241     2Au     0.735241
       9B3u    0.751787     9B2u    0.751787     5B1g    0.763167
      14Ag     0.763167    15Ag     0.926628    10B1u    1.317021
      10B2u    1.318138    10B3u    1.318138     3Au     1.321509
      11B1u    1.321509    11B3u    1.327201    11B2u    1.327201
       4Au     1.335335    12B1u    1.335335    12B3u    1.346099
      12B2u    1.346099    16Ag     1.396019     6B2g    1.398274
       6B3g    1.398274     6B1g    1.405029    17Ag     1.405029
       7B2g    1.416283     7B3g    1.416283     7B1g    1.432244
      18Ag     1.432244    13B1u    1.579975    13B2u    1.584918
      13B3u    1.584918    19Ag     1.597377    14B1u    1.599308
       5Au     1.599308     8B2g    1.605111     8B3g    1.605111
      14B3u    1.623689    14B2u    1.623689     8B1g    1.632266
      20Ag     1.632266    15B1u    1.699632    15B2u    1.737766
      15B3u    1.737766    21Ag     2.781049     9B3g    2.782237
       9B2g    2.782237     9B1g    2.785808    22Ag     2.785808
      10B2g    2.791774    10B3g    2.791774    23Ag     2.800170
      10B1g    2.800170    11B2g    2.811054    11B3g    2.811054
      24Ag     2.824517    11B1g    2.824517    25Ag     2.825882
      26Ag     2.907273    12B2g    2.910280    12B3g    2.910280
      27Ag     2.919332    12B1g    2.919332    13B2g    2.934450
      13B3g    2.934450    13B1g    2.955719    28Ag     2.955719
      16B1u    3.001285    16B2u    3.003112    16B3u    3.003112
      17B1u    3.008623     6Au     3.008623    17B3u    3.017901
      17B2u    3.017901     7Au     3.031097    18B1u    3.031097
      18B2u    3.048445    18B3u    3.048445    19B1u    3.314239
      19B2u    3.319029    19B3u    3.319029     8Au     3.333566
      20B1u    3.333566    20B3u    3.358481    20B2u    3.358481
      29Ag     3.396494    14B2g    3.403716    14B3g    3.403716
      14B1g    3.429970    30Ag     3.429970    21B1u    4.793516
      21B2u    4.825437    21B3u    4.825437    31Ag     5.762860
      15B2g    5.765676    15B3g    5.765676    32Ag     5.774148
      15B1g    5.774148    16B2g    5.788344    16B3g    5.788344
      16B1g    5.808377    33Ag     5.808377    34Ag     6.020766
      17B3g    6.022200    17B2g    6.022200    17B1g    6.026515
      35Ag     6.026515    18B2g    6.033757    18B3g    6.033757
      18B1g    6.044006    36Ag     6.044006    19B2g    6.057377
      19B3g    6.057377    19B1g    6.074040    37Ag     6.074040
      22B1u    6.335032    22B3u    6.337000    22B2u    6.337000
      23B1u    6.342926     9Au     6.342926    23B2u    6.352874
      23B3u    6.352874    10Au     6.366953    24B1u    6.366953
      24B2u    6.385322    24B3u    6.385322    25B1u    6.929159
      25B2u    6.932813    25B3u    6.932813    11Au     6.943893
      26B1u    6.943893    26B3u    6.962816    26B2u    6.962816
      38Ag     6.969191    20B2g    6.976339    20B3g    6.976339
      20B1g    6.997933    39Ag     6.997933    40Ag     8.774800
      41Ag    18.882394    21B2g   18.886310    21B3g   18.886310
      21B1g   18.898283    42Ag    18.898283    27B1u   19.474104
      27B2u   19.490945    27B3u   19.490945    43Ag   177.945753

    Final Occupation by Irrep:
             Ag   B1g   B2g   B3g    Au   B1u   B2u   B3u
    DOCC [     3,    0,    0,    0,    0,    1,    1,    1 ]
    SOCC [     0,    0,    0,    0,    0,    0,    1,    1 ]

  @UHF Final Energy:  -288.85891349262391

   => Energetics <=

    Nuclear Repulsion Energy =              0.0000000000000000
    One-Electron Energy =                -400.5714374988739905
    Two-Electron Energy =                 111.7125240062500495
    Total Energy =                       -288.8589134926239694

  UHF NO Occupations:
  HONO-2 :    3 Ag 1.9921314
  HONO-1 :    2B2u 1.0000000
  HONO-0 :    2B3u 1.0000000
  LUNO+0 :    4 Ag 0.0078686
  LUNO+1 :    3B3u 0.0000050
  LUNO+2 :    3B2u 0.0000050
  LUNO+3 :    2B1u 0.0000005

Computation Completed

Properties will be evaluated at   0.000000,   0.000000,   0.000000 [a0]

Properties computed using the SCF density matrix

  Nuclear Dipole Moment: [e a0]
     X:     0.0000      Y:     0.0000      Z:     0.0000

  Electronic Dipole Moment: [e a0]
     X:     0.0000      Y:     0.0000      Z:     0.0000

  Dipole Moment: [e a0]
     X:     0.0000      Y:     0.0000      Z:     0.0000     Total:     0.0000

  Dipole Moment: [D]
     X:     0.0000      Y:     0.0000      Z:     0.0000     Total:     0.0000

*** tstop() called on n411-011.vsc4.prov at Thu Jan 21 13:56:45 2021
Module time:
	user time   =     130.36 seconds =       2.17 minutes
	system time =       5.41 seconds =       0.09 minutes
	total time  =        124 seconds =       2.07 minutes
Total time:
	user time   =     130.36 seconds =       2.17 minutes
	system time =       5.41 seconds =       0.09 minutes
	total time  =        124 seconds =       2.07 minutes

*** tstart() called on n411-011.vsc4.prov
*** at Thu Jan 21 13:56:45 2021

	Wfn Parameters:
	--------------------
	Wavefunction         = CCSD_T
	Number of irreps     = 8
	Number of MOs        = 198
	Number of active MOs = 193
	AO-Basis             = NONE
	Semicanonical        = false
	Reference            = UHF
	Print Level          = 1

	IRREP	# MOs	# FZDC	# DOCC	# SOCC	# VIRT	# FZVR
	-----	-----	------	------	------	------	------
	 Ag	   43	    2	    1	    0	    40	    0
	 B1g	   21	    0	    0	    0	    21	    0
	 B2g	   21	    0	    0	    0	    21	    0
	 B3g	   21	    0	    0	    0	    21	    0
	 Au	   11	    0	    0	    0	    11	    0
	 B1u	   27	    1	    0	    0	    26	    0
	 B2u	   27	    1	    0	    1	    25	    0
	 B3u	   27	    1	    0	    1	    25	    0
	Transforming integrals...
	IWL integrals will be deleted.
	(OO|OO)...
	Presorting SO-basis two-electron integrals.
	Sorting File: SO Ints (nn|nn) nbuckets = 1
	Constructing frozen core operators
	Starting AA/AB first half-transformation.
	Sorting AA/AB half-transformed integrals.
	Starting BB first half-transformation.
	Sorting BB half-transformed integrals.
	First half integral transformation complete.
	Starting AA second half-transformation.
	Starting AB second half-transformation.
	Starting BB second half-transformation.
	Two-electron integral transformation complete.
	(OO|OV)...
	Starting AA second half-transformation.
	Starting AB second half-transformation.
	Starting BB second half-transformation.
	Two-electron integral transformation complete.
	(OO|VV)...
	Starting AA second half-transformation.
	Starting AB second half-transformation.
	Starting BB second half-transformation.
	Two-electron integral transformation complete.
	(OV|OO)...
	Starting AA/AB first half-transformation.
	Sorting AA/AB half-transformed integrals.
	Starting BB first half-transformation.
	Sorting BB half-transformed integrals.
	First half integral transformation complete.
	Starting AA second half-transformation.
	Starting AB second half-transformation.
	Starting BB second half-transformation.
	Two-electron integral transformation complete.
	(OV|OV)...
	Starting AA second half-transformation.
	Starting AB second half-transformation.
	Starting BB second half-transformation.
	Two-electron integral transformation complete.
	(OV|VV)...
	Starting AA second half-transformation.
	Starting AB second half-transformation.
	Starting BB second half-transformation.
	Two-electron integral transformation complete.
	(VV|OO)...
	Starting AA/AB first half-transformation.
	Sorting AA/AB half-transformed integrals.
	Starting BB first half-transformation.
	Sorting BB half-transformed integrals.
	First half integral transformation complete.
	Starting AA second half-transformation.
	Starting AB second half-transformation.
	Starting BB second half-transformation.
	Two-electron integral transformation complete.
	(VV|OV)...
	Starting AA second half-transformation.
	Starting AB second half-transformation.
	Starting BB second half-transformation.
	Two-electron integral transformation complete.
	(VV|VV)...
	Starting AA second half-transformation.
	Starting AB second half-transformation.
	Starting BB second half-transformation.
	Two-electron integral transformation complete.
	Frozen core energy     =   -285.17678416105321

	Size of irrep 0 of <AB|CD> integrals:      5.712 (MW) /     45.697 (MB)
	Size of irrep 1 of <AB|CD> integrals:      4.805 (MW) /     38.439 (MB)
	Size of irrep 2 of <AB|CD> integrals:      4.866 (MW) /     38.931 (MB)
	Size of irrep 3 of <AB|CD> integrals:      4.866 (MW) /     38.931 (MB)
	Size of irrep 4 of <AB|CD> integrals:      4.145 (MW) /     33.162 (MB)
	Size of irrep 5 of <AB|CD> integrals:      5.387 (MW) /     43.096 (MB)
	Size of irrep 6 of <AB|CD> integrals:      5.299 (MW) /     42.394 (MB)
	Size of irrep 7 of <AB|CD> integrals:      5.299 (MW) /     42.394 (MB)
	Total:                                    40.381 (MW) /    323.045 (MB)

	Size of irrep 0 of <ab|cd> integrals:      5.954 (MW) /     47.629 (MB)
	Size of irrep 1 of <ab|cd> integrals:      5.031 (MW) /     40.248 (MB)
	Size of irrep 2 of <ab|cd> integrals:      5.031 (MW) /     40.248 (MB)
	Size of irrep 3 of <ab|cd> integrals:      5.031 (MW) /     40.248 (MB)
	Size of irrep 4 of <ab|cd> integrals:      4.318 (MW) /     34.545 (MB)
	Size of irrep 5 of <ab|cd> integrals:      5.584 (MW) /     44.670 (MB)
	Size of irrep 6 of <ab|cd> integrals:      5.584 (MW) /     44.670 (MB)
	Size of irrep 7 of <ab|cd> integrals:      5.584 (MW) /     44.670 (MB)
	Total:                                    42.116 (MW) /    336.929 (MB)

	Size of irrep 0 of <Ab|Cd> integrals:     25.200 (MW) /    201.603 (MB)
	Size of irrep 1 of <Ab|Cd> integrals:     19.660 (MW) /    157.283 (MB)
	Size of irrep 2 of <Ab|Cd> integrals:     19.794 (MW) /    158.349 (MB)
	Size of irrep 3 of <Ab|Cd> integrals:     19.794 (MW) /    158.349 (MB)
	Size of irrep 4 of <Ab|Cd> integrals:     16.925 (MW) /    135.400 (MB)
	Size of irrep 5 of <Ab|Cd> integrals:     21.940 (MW) /    175.519 (MB)
	Size of irrep 6 of <Ab|Cd> integrals:     21.762 (MW) /    174.098 (MB)
	Size of irrep 7 of <Ab|Cd> integrals:     21.762 (MW) /    174.098 (MB)
	Total:                                   166.837 (MW) /   1334.698 (MB)

	Size of irrep 0 of <IA|BC> integrals:      0.447 (MW) /      3.578 (MB)
	Size of irrep 1 of <IA|BC> integrals:      0.311 (MW) /      2.490 (MB)
	Size of irrep 2 of <IA|BC> integrals:      0.256 (MW) /      2.047 (MB)
	Size of irrep 3 of <IA|BC> integrals:      0.256 (MW) /      2.047 (MB)
	Size of irrep 4 of <IA|BC> integrals:      0.216 (MW) /      1.727 (MB)
	Size of irrep 5 of <IA|BC> integrals:      0.316 (MW) /      2.525 (MB)
	Size of irrep 6 of <IA|BC> integrals:      0.396 (MW) /      3.168 (MB)
	Size of irrep 7 of <IA|BC> integrals:      0.396 (MW) /      3.168 (MB)
	Total:                                     2.594 (MW) /     20.750 (MB)

	Size of irrep 0 of <ia|bc> integrals:      0.203 (MW) /      1.623 (MB)
	Size of irrep 1 of <ia|bc> integrals:      0.094 (MW) /      0.754 (MB)
	Size of irrep 2 of <ia|bc> integrals:      0.094 (MW) /      0.754 (MB)
	Size of irrep 3 of <ia|bc> integrals:      0.094 (MW) /      0.754 (MB)
	Size of irrep 4 of <ia|bc> integrals:      0.046 (MW) /      0.366 (MB)
	Size of irrep 5 of <ia|bc> integrals:      0.123 (MW) /      0.983 (MB)
	Size of irrep 6 of <ia|bc> integrals:      0.123 (MW) /      0.983 (MB)
	Size of irrep 7 of <ia|bc> integrals:      0.123 (MW) /      0.983 (MB)
	Total:                                     0.900 (MW) /      7.199 (MB)

	Size of irrep 0 of <Ia|Bc> integrals:      0.462 (MW) /      3.695 (MB)
	Size of irrep 1 of <Ia|Bc> integrals:      0.324 (MW) /      2.589 (MB)
	Size of irrep 2 of <Ia|Bc> integrals:      0.258 (MW) /      2.064 (MB)
	Size of irrep 3 of <Ia|Bc> integrals:      0.258 (MW) /      2.064 (MB)
	Size of irrep 4 of <Ia|Bc> integrals:      0.218 (MW) /      1.744 (MB)
	Size of irrep 5 of <Ia|Bc> integrals:      0.319 (MW) /      2.548 (MB)
	Size of irrep 6 of <Ia|Bc> integrals:      0.406 (MW) /      3.247 (MB)
	Size of irrep 7 of <Ia|Bc> integrals:      0.406 (MW) /      3.247 (MB)
	Total:                                     2.650 (MW) /     21.199 (MB)

	Size of irrep 0 of <iA|bC> integrals:      0.201 (MW) /      1.606 (MB)
	Size of irrep 1 of <iA|bC> integrals:      0.093 (MW) /      0.745 (MB)
	Size of irrep 2 of <iA|bC> integrals:      0.093 (MW) /      0.747 (MB)
	Size of irrep 3 of <iA|bC> integrals:      0.093 (MW) /      0.747 (MB)
	Size of irrep 4 of <iA|bC> integrals:      0.045 (MW) /      0.362 (MB)
	Size of irrep 5 of <iA|bC> integrals:      0.122 (MW) /      0.974 (MB)
	Size of irrep 6 of <iA|bC> integrals:      0.117 (MW) /      0.933 (MB)
	Size of irrep 7 of <iA|bC> integrals:      0.117 (MW) /      0.933 (MB)
	Total:                                     0.881 (MW) /      7.048 (MB)

	Size of irrep 0 of tIjAb amplitudes:       0.005 (MW) /      0.040 (MB)
	Size of irrep 1 of tIjAb amplitudes:       0.000 (MW) /      0.000 (MB)
	Size of irrep 2 of tIjAb amplitudes:       0.000 (MW) /      0.000 (MB)
	Size of irrep 3 of tIjAb amplitudes:       0.000 (MW) /      0.000 (MB)
	Size of irrep 4 of tIjAb amplitudes:       0.000 (MW) /      0.000 (MB)
	Size of irrep 5 of tIjAb amplitudes:       0.000 (MW) /      0.000 (MB)
	Size of irrep 6 of tIjAb amplitudes:       0.005 (MW) /      0.037 (MB)
	Size of irrep 7 of tIjAb amplitudes:       0.005 (MW) /      0.037 (MB)
	Total:                                     0.014 (MW) /      0.115 (MB)

	Nuclear Rep. energy          =      0.00000000000000
	SCF energy                   =   -288.85891349262391
	One-electron energy          =     -5.67882435633238
	Two-electron (AA) energy     =      0.86391427056648
	Two-electron (BB) energy     =      0.00000000000000
	Two-electron (AB) energy     =      1.13278075419594
	Two-electron energy          =      1.99669502476242
	Reference energy             =   -288.85891349262317

*** tstop() called on n411-011.vsc4.prov at Thu Jan 21 13:57:54 2021
Module time:
	user time   =      20.82 seconds =       0.35 minutes
	system time =      10.45 seconds =       0.17 minutes
	total time  =         69 seconds =       1.15 minutes
Total time:
	user time   =     151.18 seconds =       2.52 minutes
	system time =      15.86 seconds =       0.26 minutes
	total time  =        193 seconds =       3.22 minutes
            **************************
            *                        *
            *        CCENERGY        *
            *                        *
            **************************

    Nuclear Rep. energy (wfn)     =    0.000000000000000
    SCF energy          (wfn)     = -288.858913492623913

      * MP2 total energy                      = -288.921510196832344
      * CCSD total energy                     = -288.936573849152467
      * CCSD(T) total energy                     = -288.939582068762491
*** Psi4 exiting successfully. Buy a developer a beer!
