                               Psi4 1.4a3.dev88

  ==> Input File <==

--------------------------------------------------------------------------
# Any line starting with the # character is a comment line
memory 250000 mb
molecule molecule{
0 3
Si          0.0000000000        0.0000000000        0.0000000000
}

set {
  reference uhf
  basis aug-cc-pv(q+d)z
  scf_type OUT_OF_CORE
  freeze_core true
}

energy('ccsd(t)')
--------------------------------------------------------------------------

    Molecular point group: d2h
    Geometry (in Angstrom), charge = 0, multiplicity = 3:

       Center              X                  Y                   Z               Mass
    ------------   -----------------  -----------------  -----------------  -----------------
         SI           0.000000000000     0.000000000000     0.000000000000    27.976926534650

  Charge       = 0
  Multiplicity = 3
  Basis Set: AUG-CC-PV(Q+D)Z
    Blend: AUG-CC-PV(Q+D)Z

    Orbital Energies [Eh]
    ---------------------

    Alpha Occupied:

       1Ag   -68.815765     2Ag    -6.160843     1B2u   -4.268141
       1B1u   -4.268140     1B3u   -4.258478     3Ag    -0.619884
       2B2u   -0.301359     2B1u   -0.301359

    Alpha Virtual:

       2B3u   -0.010131     4Ag     0.051732     3B2u    0.054083
       3B1u    0.054083     3B3u    0.062438     5Ag     0.117179
       1B3g    0.117179     1B2g    0.117337     1B1g    0.117337
       6Ag     0.117666     4B2u    0.273529     4B1u    0.273529
       4B3u    0.291057     7Ag     0.313186     8Ag     0.314797
       2B3g    0.314797     2B1g    0.327562     2B2g    0.327562
       5B3u    0.333276     9Ag     0.333417     5B1u    0.333795
       5B2u    0.333795     6B3u    0.336415     1Au     0.336415
       6B2u    0.341371     6B1u    0.341371    10Ag     0.830483
       3B3g    0.830483     3B1g    0.831439     3B2g    0.831439
      11Ag     0.832156     7B3u    0.946038     7B2u    0.947463
       7B1u    0.947463     8B3u    0.951598     2Au     0.951598
       8B2u    0.957714     8B1u    0.957714    12Ag     1.020177
       4B2g    1.021398     4B1g    1.021398    13Ag     1.025079
       4B3g    1.025079     5B2g    1.031266     5B1g    1.031266
      14Ag     1.040046     5B3g    1.040046     9B2u    1.056945
       9B1u    1.056945     9B3u    1.064328    15Ag     1.252977
      16Ag     1.949010     6B2g    1.953505     6B1g    1.953505
       6B3g    1.967472    17Ag     1.967472    10B3u    2.374813
      10B2u    2.377010    10B1u    2.377010     3Au     2.383625
      11B3u    2.383625    11B2u    2.394707    11B1u    2.394707
      18Ag     2.650588     7B2g    2.652316     7B1g    2.652316
       7B3g    2.657520    19Ag     2.657520     8B1g    2.666265
       8B2g    2.666265    20Ag     2.678647     8B3g    2.678647
      12B3u    5.151648    12B2u    5.167576    12B1u    5.167576
      21Ag     6.077451     9B2g    6.081193     9B1g    6.081193
      22Ag     6.092496     9B3g    6.092496    23Ag     9.016162

    Beta Occupied:

       1Ag   -68.806871     2Ag    -6.149805     1B3u   -4.253799
       1B1u   -4.240521     1B2u   -4.240521     3Ag    -0.462902

    Beta Virtual:

       2B3u    0.005115     2B1u    0.031562     2B2u    0.031562
       4Ag     0.058769     3B3u    0.067534     3B1u    0.091154
       3B2u    0.091154     5Ag     0.123116     1B1g    0.124909
       1B2g    0.124909     1B3g    0.131925     6Ag     0.131925
       4B3u    0.298841     4B1u    0.327285     4B2u    0.327285
       7Ag     0.335416     5B3u    0.338686     5B2u    0.340630
       5B1u    0.340630     1Au     0.344794     6B3u    0.344794
       6B2u    0.353624     6B1u    0.353624     8Ag     0.361745
       2B2g    0.366386     2B1g    0.366386     2B3g    0.389834
       9Ag     0.389834    10Ag     0.857104     3B2g    0.865571
       3B1g    0.865571     3B3g    0.895929    11Ag     0.895929
       7B3u    0.966459     7B1u    0.970973     7B2u    0.970973
       2Au     0.983846     8B3u    0.983846     8B1u    1.005812
       8B2u    1.005812    12Ag     1.030919     4B1g    1.032889
       4B2g    1.032889     4B3g    1.038857    13Ag     1.038857
       5B2g    1.048994     5B1g    1.048994    14Ag     1.063677
       5B3g    1.063677     9B3u    1.073564     9B1u    1.110922
       9B2u    1.110922    15Ag     1.280502    16Ag     1.960539
       6B2g    1.968232     6B1g    1.968232     6B3g    1.995195
      17Ag     1.995195    10B3u    2.393157    10B1u    2.398143
      10B2u    2.398143     3Au     2.413306    11B3u    2.413306
      11B1u    2.439481    11B2u    2.439481    18Ag     2.666843
       7B2g    2.669868     7B1g    2.669868     7B3g    2.679013
      19Ag     2.679013     8B2g    2.694492     8B1g    2.694492
      20Ag     2.716713     8B3g    2.716713    12B3u    5.157699
      12B1u    5.194444    12B2u    5.194444    21Ag     6.082625
       9B2g    6.088312     9B1g    6.088312     9B3g    6.105539
      22Ag     6.105539    23Ag     9.030105

    Final Occupation by Irrep:
             Ag   B1g   B2g   B3g    Au   B1u   B2u   B3u
    DOCC [     3,    0,    0,    0,    0,    1,    1,    1 ]
    SOCC [     0,    0,    0,    0,    0,    1,    1,    0 ]

  @UHF Final Energy:  -288.85846443419740

   => Energetics <=

    Nuclear Repulsion Energy =              0.0000000000000000
    One-Electron Energy =                -400.5685379220415712
    Two-Electron Energy =                 111.7100734878441131
    Total Energy =                       -288.8584644341974581

  UHF NO Occupations:
  HONO-2 :    3 Ag 1.9921538
  HONO-1 :    2B2u 1.0000000
  HONO-0 :    2B1u 1.0000000
  LUNO+0 :    4 Ag 0.0078462
  LUNO+1 :    3B2u 0.0000023
  LUNO+2 :    3B1u 0.0000023
  LUNO+3 :    2B3u 0.0000004

Computation Completed

Properties will be evaluated at   0.000000,   0.000000,   0.000000 [a0]

Properties computed using the SCF density matrix

  Nuclear Dipole Moment: [e a0]
     X:     0.0000      Y:     0.0000      Z:     0.0000

  Electronic Dipole Moment: [e a0]
     X:     0.0000      Y:     0.0000      Z:     0.0000

  Dipole Moment: [e a0]
     X:     0.0000      Y:     0.0000      Z:     0.0000     Total:     0.0000

  Dipole Moment: [D]
     X:     0.0000      Y:     0.0000      Z:     0.0000     Total:     0.0000

*** tstop() called on n412-052.vsc4.prov at Wed Jan 20 20:47:55 2021
Module time:
	user time   =      18.61 seconds =       0.31 minutes
	system time =       1.19 seconds =       0.02 minutes
	total time  =          7 seconds =       0.12 minutes
Total time:
	user time   =      18.61 seconds =       0.31 minutes
	system time =       1.19 seconds =       0.02 minutes
	total time  =          7 seconds =       0.12 minutes

*** tstart() called on n412-052.vsc4.prov
*** at Wed Jan 20 20:47:55 2021

	Wfn Parameters:
	--------------------
	Wavefunction         = CCSD_T
	Number of irreps     = 8
	Number of MOs        = 89
	Number of active MOs = 84
	AO-Basis             = NONE
	Semicanonical        = false
	Reference            = UHF
	Print Level          = 1

	IRREP	# MOs	# FZDC	# DOCC	# SOCC	# VIRT	# FZVR
	-----	-----	------	------	------	------	------
	 Ag	   23	    2	    1	    0	    20	    0
	 B1g	   9	    0	    0	    0	    9	    0
	 B2g	   9	    0	    0	    0	    9	    0
	 B3g	   9	    0	    0	    0	    9	    0
	 Au	   3	    0	    0	    0	    3	    0
	 B1u	   12	    1	    0	    1	    10	    0
	 B2u	   12	    1	    0	    1	    10	    0
	 B3u	   12	    1	    0	    0	    11	    0
	Transforming integrals...
	IWL integrals will be deleted.
	(OO|OO)...
	Presorting SO-basis two-electron integrals.
	Sorting File: SO Ints (nn|nn) nbuckets = 1
	Constructing frozen core operators
	Starting AA/AB first half-transformation.
	Sorting AA/AB half-transformed integrals.
	Starting BB first half-transformation.
	Sorting BB half-transformed integrals.
	First half integral transformation complete.
	Starting AA second half-transformation.
	Starting AB second half-transformation.
	Starting BB second half-transformation.
	Two-electron integral transformation complete.
	(OO|OV)...
	Starting AA second half-transformation.
	Starting AB second half-transformation.
	Starting BB second half-transformation.
	Two-electron integral transformation complete.
	(OO|VV)...
	Starting AA second half-transformation.
	Starting AB second half-transformation.
	Starting BB second half-transformation.
	Two-electron integral transformation complete.
	(OV|OO)...
	Starting AA/AB first half-transformation.
	Sorting AA/AB half-transformed integrals.
	Starting BB first half-transformation.
	Sorting BB half-transformed integrals.
	First half integral transformation complete.
	Starting AA second half-transformation.
	Starting AB second half-transformation.
	Starting BB second half-transformation.
	Two-electron integral transformation complete.
	(OV|OV)...
	Starting AA second half-transformation.
	Starting AB second half-transformation.
	Starting BB second half-transformation.
	Two-electron integral transformation complete.
	(OV|VV)...
	Starting AA second half-transformation.
	Starting AB second half-transformation.
	Starting BB second half-transformation.
	Two-electron integral transformation complete.
	(VV|OO)...
	Starting AA/AB first half-transformation.
	Sorting AA/AB half-transformed integrals.
	Starting BB first half-transformation.
	Sorting BB half-transformed integrals.
	First half integral transformation complete.
	Starting AA second half-transformation.
	Starting AB second half-transformation.
	Starting BB second half-transformation.
	Two-electron integral transformation complete.
	(VV|OV)...
	Starting AA second half-transformation.
	Starting AB second half-transformation.
	Starting BB second half-transformation.
	Two-electron integral transformation complete.
	(VV|VV)...
	Starting AA second half-transformation.
	Starting AB second half-transformation.
	Starting BB second half-transformation.
	Two-electron integral transformation complete.
	Frozen core energy     =   -285.17654992449565

	Size of irrep 0 of <AB|CD> integrals:      0.199 (MW) /      1.591 (MB)
	Size of irrep 1 of <AB|CD> integrals:      0.161 (MW) /      1.286 (MB)
	Size of irrep 2 of <AB|CD> integrals:      0.161 (MW) /      1.286 (MB)
	Size of irrep 3 of <AB|CD> integrals:      0.155 (MW) /      1.242 (MB)
	Size of irrep 4 of <AB|CD> integrals:      0.115 (MW) /      0.919 (MB)
	Size of irrep 5 of <AB|CD> integrals:      0.173 (MW) /      1.384 (MB)
	Size of irrep 6 of <AB|CD> integrals:      0.173 (MW) /      1.384 (MB)
	Size of irrep 7 of <AB|CD> integrals:      0.182 (MW) /      1.459 (MB)
	Total:                                     1.319 (MW) /     10.553 (MB)

	Size of irrep 0 of <ab|cd> integrals:      0.217 (MW) /      1.737 (MB)
	Size of irrep 1 of <ab|cd> integrals:      0.172 (MW) /      1.378 (MB)
	Size of irrep 2 of <ab|cd> integrals:      0.172 (MW) /      1.378 (MB)
	Size of irrep 3 of <ab|cd> integrals:      0.172 (MW) /      1.378 (MB)
	Size of irrep 4 of <ab|cd> integrals:      0.127 (MW) /      1.020 (MB)
	Size of irrep 5 of <ab|cd> integrals:      0.198 (MW) /      1.584 (MB)
	Size of irrep 6 of <ab|cd> integrals:      0.198 (MW) /      1.584 (MB)
	Size of irrep 7 of <ab|cd> integrals:      0.198 (MW) /      1.584 (MB)
	Total:                                     1.455 (MW) /     11.643 (MB)

	Size of irrep 0 of <Ab|Cd> integrals:      0.986 (MW) /      7.888 (MB)
	Size of irrep 1 of <Ab|Cd> integrals:      0.666 (MW) /      5.327 (MB)
	Size of irrep 2 of <Ab|Cd> integrals:      0.666 (MW) /      5.327 (MB)
	Size of irrep 3 of <Ab|Cd> integrals:      0.653 (MW) /      5.223 (MB)
	Size of irrep 4 of <Ab|Cd> integrals:      0.484 (MW) /      3.875 (MB)
	Size of irrep 5 of <Ab|Cd> integrals:      0.741 (MW) /      5.931 (MB)
	Size of irrep 6 of <Ab|Cd> integrals:      0.741 (MW) /      5.931 (MB)
	Size of irrep 7 of <Ab|Cd> integrals:      0.760 (MW) /      6.083 (MB)
	Total:                                     5.698 (MW) /     45.585 (MB)

	Size of irrep 0 of <IA|BC> integrals:      0.039 (MW) /      0.311 (MB)
	Size of irrep 1 of <IA|BC> integrals:      0.018 (MW) /      0.148 (MB)
	Size of irrep 2 of <IA|BC> integrals:      0.018 (MW) /      0.148 (MB)
	Size of irrep 3 of <IA|BC> integrals:      0.023 (MW) /      0.183 (MB)
	Size of irrep 4 of <IA|BC> integrals:      0.014 (MW) /      0.114 (MB)
	Size of irrep 5 of <IA|BC> integrals:      0.032 (MW) /      0.260 (MB)
	Size of irrep 6 of <IA|BC> integrals:      0.032 (MW) /      0.260 (MB)
	Size of irrep 7 of <IA|BC> integrals:      0.025 (MW) /      0.198 (MB)
	Total:                                     0.203 (MW) /      1.621 (MB)

	Size of irrep 0 of <ia|bc> integrals:      0.020 (MW) /      0.162 (MB)
	Size of irrep 1 of <ia|bc> integrals:      0.007 (MW) /      0.060 (MB)
	Size of irrep 2 of <ia|bc> integrals:      0.007 (MW) /      0.060 (MB)
	Size of irrep 3 of <ia|bc> integrals:      0.007 (MW) /      0.060 (MB)
	Size of irrep 4 of <ia|bc> integrals:      0.002 (MW) /      0.017 (MB)
	Size of irrep 5 of <ia|bc> integrals:      0.010 (MW) /      0.078 (MB)
	Size of irrep 6 of <ia|bc> integrals:      0.010 (MW) /      0.078 (MB)
	Size of irrep 7 of <ia|bc> integrals:      0.010 (MW) /      0.078 (MB)
	Total:                                     0.074 (MW) /      0.594 (MB)

	Size of irrep 0 of <Ia|Bc> integrals:      0.042 (MW) /      0.334 (MB)
	Size of irrep 1 of <Ia|Bc> integrals:      0.019 (MW) /      0.150 (MB)
	Size of irrep 2 of <Ia|Bc> integrals:      0.019 (MW) /      0.150 (MB)
	Size of irrep 3 of <Ia|Bc> integrals:      0.025 (MW) /      0.200 (MB)
	Size of irrep 4 of <Ia|Bc> integrals:      0.015 (MW) /      0.117 (MB)
	Size of irrep 5 of <Ia|Bc> integrals:      0.034 (MW) /      0.276 (MB)
	Size of irrep 6 of <Ia|Bc> integrals:      0.034 (MW) /      0.276 (MB)
	Size of irrep 7 of <Ia|Bc> integrals:      0.025 (MW) /      0.202 (MB)
	Total:                                     0.213 (MW) /      1.705 (MB)

	Size of irrep 0 of <iA|bC> integrals:      0.020 (MW) /      0.159 (MB)
	Size of irrep 1 of <iA|bC> integrals:      0.007 (MW) /      0.059 (MB)
	Size of irrep 2 of <iA|bC> integrals:      0.007 (MW) /      0.059 (MB)
	Size of irrep 3 of <iA|bC> integrals:      0.007 (MW) /      0.058 (MB)
	Size of irrep 4 of <iA|bC> integrals:      0.002 (MW) /      0.017 (MB)
	Size of irrep 5 of <iA|bC> integrals:      0.009 (MW) /      0.069 (MB)
	Size of irrep 6 of <iA|bC> integrals:      0.009 (MW) /      0.069 (MB)
	Size of irrep 7 of <iA|bC> integrals:      0.010 (MW) /      0.077 (MB)
	Total:                                     0.071 (MW) /      0.566 (MB)

	Size of irrep 0 of tIjAb amplitudes:       0.001 (MW) /      0.008 (MB)
	Size of irrep 1 of tIjAb amplitudes:       0.000 (MW) /      0.000 (MB)
	Size of irrep 2 of tIjAb amplitudes:       0.000 (MW) /      0.000 (MB)
	Size of irrep 3 of tIjAb amplitudes:       0.000 (MW) /      0.000 (MB)
	Size of irrep 4 of tIjAb amplitudes:       0.000 (MW) /      0.000 (MB)
	Size of irrep 5 of tIjAb amplitudes:       0.001 (MW) /      0.007 (MB)
	Size of irrep 6 of tIjAb amplitudes:       0.001 (MW) /      0.007 (MB)
	Size of irrep 7 of tIjAb amplitudes:       0.000 (MW) /      0.000 (MB)
	Total:                                     0.003 (MW) /      0.022 (MB)

	Nuclear Rep. energy          =      0.00000000000000
	SCF energy                   =   -288.85846443419740
	One-electron energy          =     -5.67832398993455
	Two-electron (AA) energy     =      0.86373163701180
	Two-electron (BB) energy     =      0.00000000000000
	Two-electron (AB) energy     =      1.13267784322105
	Two-electron energy          =      1.99640948023284
	Reference energy             =   -288.85846443419734

*** tstop() called on n412-052.vsc4.prov at Wed Jan 20 20:48:01 2021
Module time:
	user time   =       0.78 seconds =       0.01 minutes
	system time =       0.94 seconds =       0.02 minutes
	total time  =          6 seconds =       0.10 minutes
Total time:
	user time   =      19.39 seconds =       0.32 minutes
	system time =       2.13 seconds =       0.04 minutes
	total time  =         13 seconds =       0.22 minutes
            **************************
            *                        *
            *        CCENERGY        *
            *                        *
            **************************

    Nuclear Rep. energy (wfn)     =    0.000000000000000
    SCF energy          (wfn)     = -288.858464434197401
    Reference energy    (file100) = -288.858464434197344

    Input parameters:
    -----------------
    Wave function   =     CCSD_T
    Reference wfn   =     UHF
    Brueckner       =     No
    Memory (Mbytes) =     250000.0
    Maxiter         =     50
    R_Convergence   =     1.0e-07
    E_Convergence   =     1.0e-06
    Restart         =     Yes
    DIIS            =     Yes
    AO Basis        =     NONE
    ABCD            =     NEW
    Cache Level     =     2
    Cache Type      =     LRU
    Print Level     =     1
    Num. of threads =     48
    # Amps to Print =     10
    Print MP2 Amps? =     No
    Analyze T2 Amps =     No
    Print Pair Ener =     No
    Local CC        =     No
    SCS-MP2         =     False
    SCSN-MP2        =     False
    SCS-CCSD        =     False

MP2 correlation energy -0.0601774287630758
                Solving CC Amplitude Equations
                ------------------------------
  Iter             Energy              RMS        T1Diag      D1Diag    New D1Diag    D2Diag
  ----     ---------------------    ---------   ----------  ----------  ----------   --------
     0        -0.060177428763076    0.000e+00    0.000000    0.000000    0.000000    0.000000
     1        -0.070986301441002    5.334e-02    0.009328    0.000000    0.000000    0.000000
     2        -0.076220937600816    2.194e-02    0.015918    0.000000    0.000000    0.000000
     3        -0.076591442079358    5.577e-03    0.017730    0.000000    0.000000    0.000000
     4        -0.076653355403241    1.222e-03    0.017934    0.000000    0.000000    0.000000
     5        -0.076643249431215    2.977e-04    0.017932    0.000000    0.000000    0.000000
     6        -0.076646124421166    8.457e-05    0.017935    0.000000    0.000000    0.000000
     7        -0.076646313326655    1.762e-05    0.017938    0.000000    0.000000    0.000000
     8        -0.076646098896204    3.989e-06    0.017938    0.000000    0.000000    0.000000
     9        -0.076646127953715    1.022e-06    0.017939    0.000000    0.000000    0.000000
    10        -0.076646128898945    3.185e-07    0.017939    0.000000    0.000000    0.000000
    11        -0.076646127403651    9.091e-08    0.017939    0.000000    0.000000    0.000000

    Iterations converged.

    Largest TIA Amplitudes:
              0   5        -0.0239479190
              0   2         0.0132779622
              0   7        -0.0108355989
              0   0         0.0063630298
              1  51         0.0061532699
              2  61         0.0061532595
              0   3        -0.0051776566
              1  52         0.0040269724
              2  62         0.0040269713
              2  64         0.0035147495

    Largest Tia Amplitudes:
              0   3         0.0081754143
              0   0        -0.0081237903
              0   4        -0.0041553071
              0   1         0.0029287438
              0   6         0.0027855845
              0  11         0.0011793500
              0   8         0.0006245017
              0  19        -0.0005449037
              0  14        -0.0004632842
              0  12        -0.0001745964

      * MP2 total energy                      = -288.918641862960442
      * CCSD total energy                     = -288.935110561600993
      * CCSD(T) total energy                     = -288.937988624326124
*** Psi4 exiting successfully. Buy a developer a beer!
