                               Psi4 1.4a3.dev88

  ==> Input File <==

--------------------------------------------------------------------------
# Any line starting with the # character is a comment line
memory 250000 mb
molecule molecule{
0 3
Si          0.0000000000        0.0000000000        0.0000000000
}

set {
  reference uhf
  basis aug-cc-pV(d+d)Z
  scf_type OUT_OF_CORE
  freeze_core true
}

energy('ccsd(t)')
--------------------------------------------------------------------------

    Molecular point group: d2h
    Geometry (in Angstrom), charge = 0, multiplicity = 3:

       Center              X                  Y                   Z               Mass
    ------------   -----------------  -----------------  -----------------  -----------------
         SI           0.000000000000     0.000000000000     0.000000000000    27.976926534650

  Charge       = 0
  Multiplicity = 3
  Basis Set: AUG-CC-PV(D+D)Z
    Blend: AUG-CC-PV(D+D)Z

    Orbital Energies [Eh]
    ---------------------

    Alpha Occupied:

       1Ag   -68.818285     2Ag    -6.162524     1B1u   -4.269420
       1B2u   -4.269420     1B3u   -4.260601     3Ag    -0.620870
       2B1u   -0.301055     2B2u   -0.301055

    Alpha Virtual:

       2B3u   -0.010827     4Ag     0.071493     3B1u    0.076903
       3B2u    0.076903     3B3u    0.090331     1B3g    0.199189
       5Ag     0.199189     1B1g    0.209052     1B2g    0.209052
       6Ag     0.213643     4B1u    0.524753     4B2u    0.524753
       7Ag     0.547430     4B3u    0.549929     2B3g    0.650654
       8Ag     0.650654     2B2g    0.659576     2B1g    0.659576
       9Ag     0.663823    10Ag     3.319420     3B1g    3.323666
       3B2g    3.323666     3B3g    3.336370    11Ag     3.336370

    Beta Occupied:

       1Ag   -68.809280     2Ag    -6.151649     1B3u   -4.256026
       1B2u   -4.242684     1B1u   -4.242684     3Ag    -0.464371

    Beta Virtual:

       2B3u    0.006384     2B2u    0.035932     2B1u    0.035932
       4Ag     0.083430     3B3u    0.097642     3B2u    0.124759
       3B1u    0.124759     5Ag     0.235035     1B2g    0.240421
       1B1g    0.240421     1B3g    0.258727     6Ag     0.258727
       4B3u    0.560813     7Ag     0.580398     4B2u    0.596584
       4B1u    0.596584     8Ag     0.697194     2B1g    0.706024
       2B2g    0.706024     2B3g    0.738414     9Ag     0.738414
      10Ag     3.324443     3B1g    3.330743     3B2g    3.330743
       3B3g    3.349675    11Ag     3.349675

    Final Occupation by Irrep:
             Ag   B1g   B2g   B3g    Au   B1u   B2u   B3u
    DOCC [     3,    0,    0,    0,    0,    1,    1,    1 ]
    SOCC [     0,    0,    0,    0,    0,    1,    1,    0 ]

  @UHF Final Energy:  -288.85109621755259

   => Energetics <=

    Nuclear Repulsion Energy =              0.0000000000000000
    One-Electron Energy =                -400.5322679614067738
    Two-Electron Energy =                 111.6811717438541507
    Total Energy =                       -288.8510962175525947

  UHF NO Occupations:
  HONO-2 :    3 Ag 1.9926998
  HONO-1 :    2B2u 1.0000000
  HONO-0 :    2B1u 1.0000000
  LUNO+0 :    4 Ag 0.0073002
  LUNO+1 :    3B1u 0.0000005
  LUNO+2 :    3B2u 0.0000005
  LUNO+3 :    5 Ag 0.0000001

Computation Completed

Properties will be evaluated at   0.000000,   0.000000,   0.000000 [a0]

Properties computed using the SCF density matrix

  Nuclear Dipole Moment: [e a0]
     X:     0.0000      Y:     0.0000      Z:     0.0000

  Electronic Dipole Moment: [e a0]
     X:     0.0000      Y:     0.0000      Z:     0.0000

  Dipole Moment: [e a0]
     X:     0.0000      Y:     0.0000      Z:     0.0000     Total:     0.0000

  Dipole Moment: [D]
     X:     0.0000      Y:     0.0000      Z:     0.0000     Total:     0.0000

*** tstop() called on n412-039.vsc4.prov at Tue Jan 26 18:14:29 2021
Module time:
	user time   =       7.30 seconds =       0.12 minutes
	system time =       0.57 seconds =       0.01 minutes
	total time  =          2 seconds =       0.03 minutes
Total time:
	user time   =       7.30 seconds =       0.12 minutes
	system time =       0.57 seconds =       0.01 minutes
	total time  =          2 seconds =       0.03 minutes

*** tstart() called on n412-039.vsc4.prov
*** at Tue Jan 26 18:14:29 2021

	Wfn Parameters:
	--------------------
	Wavefunction         = CCSD_T
	Number of irreps     = 8
	Number of MOs        = 32
	Number of active MOs = 27
	AO-Basis             = NONE
	Semicanonical        = false
	Reference            = UHF
	Print Level          = 1

	IRREP	# MOs	# FZDC	# DOCC	# SOCC	# VIRT	# FZVR
	-----	-----	------	------	------	------	------
	 Ag	   11	    2	    1	    0	    8	    0
	 B1g	   3	    0	    0	    0	    3	    0
	 B2g	   3	    0	    0	    0	    3	    0
	 B3g	   3	    0	    0	    0	    3	    0
	 Au	   0	    0	    0	    0	    0	    0
	 B1u	   4	    1	    0	    1	    2	    0
	 B2u	   4	    1	    0	    1	    2	    0
	 B3u	   4	    1	    0	    0	    3	    0
	Transforming integrals...
	IWL integrals will be deleted.
	(OO|OO)...
	Presorting SO-basis two-electron integrals.
	Sorting File: SO Ints (nn|nn) nbuckets = 1
	Constructing frozen core operators
	Starting AA/AB first half-transformation.
	Sorting AA/AB half-transformed integrals.
	Starting BB first half-transformation.
	Sorting BB half-transformed integrals.
	First half integral transformation complete.
	Starting AA second half-transformation.
	Starting AB second half-transformation.
	Starting BB second half-transformation.
	Two-electron integral transformation complete.
	(OO|OV)...
	Starting AA second half-transformation.
	Starting AB second half-transformation.
	Starting BB second half-transformation.
	Two-electron integral transformation complete.
	(OO|VV)...
	Starting AA second half-transformation.
	Starting AB second half-transformation.
	Starting BB second half-transformation.
	Two-electron integral transformation complete.
	(OV|OO)...
	Starting AA/AB first half-transformation.
	Sorting AA/AB half-transformed integrals.
	Starting BB first half-transformation.
	Sorting BB half-transformed integrals.
	First half integral transformation complete.
	Starting AA second half-transformation.
	Starting AB second half-transformation.
	Starting BB second half-transformation.
	Two-electron integral transformation complete.
	(OV|OV)...
	Starting AA second half-transformation.
	Starting AB second half-transformation.
	Starting BB second half-transformation.
	Two-electron integral transformation complete.
	(OV|VV)...
	Starting AA second half-transformation.
	Starting AB second half-transformation.
	Starting BB second half-transformation.
	Two-electron integral transformation complete.
	(VV|OO)...
	Starting AA/AB first half-transformation.
	Sorting AA/AB half-transformed integrals.
	Starting BB first half-transformation.
	Sorting BB half-transformed integrals.
	First half integral transformation complete.
	Starting AA second half-transformation.
	Starting AB second half-transformation.
	Starting BB second half-transformation.
	Two-electron integral transformation complete.
	(VV|OV)...
	Starting AA second half-transformation.
	Starting AB second half-transformation.
	Starting BB second half-transformation.
	Two-electron integral transformation complete.
	(VV|VV)...
	Starting AA second half-transformation.
	Starting AB second half-transformation.
	Starting BB second half-transformation.
	Two-electron integral transformation complete.
	Frozen core energy     =   -285.17089299044130

	Size of irrep 0 of <AB|CD> integrals:      0.002 (MW) /      0.014 (MB)
	Size of irrep 1 of <AB|CD> integrals:      0.002 (MW) /      0.012 (MB)
	Size of irrep 2 of <AB|CD> integrals:      0.002 (MW) /      0.012 (MB)
	Size of irrep 3 of <AB|CD> integrals:      0.001 (MW) /      0.011 (MB)
	Size of irrep 4 of <AB|CD> integrals:      0.000 (MW) /      0.004 (MB)
	Size of irrep 5 of <AB|CD> integrals:      0.001 (MW) /      0.008 (MB)
	Size of irrep 6 of <AB|CD> integrals:      0.001 (MW) /      0.008 (MB)
	Size of irrep 7 of <AB|CD> integrals:      0.001 (MW) /      0.010 (MB)
	Total:                                     0.010 (MW) /      0.079 (MB)

	Size of irrep 0 of <ab|cd> integrals:      0.002 (MW) /      0.017 (MB)
	Size of irrep 1 of <ab|cd> integrals:      0.002 (MW) /      0.014 (MB)
	Size of irrep 2 of <ab|cd> integrals:      0.002 (MW) /      0.014 (MB)
	Size of irrep 3 of <ab|cd> integrals:      0.002 (MW) /      0.014 (MB)
	Size of irrep 4 of <ab|cd> integrals:      0.001 (MW) /      0.006 (MB)
	Size of irrep 5 of <ab|cd> integrals:      0.002 (MW) /      0.014 (MB)
	Size of irrep 6 of <ab|cd> integrals:      0.002 (MW) /      0.014 (MB)
	Size of irrep 7 of <ab|cd> integrals:      0.002 (MW) /      0.014 (MB)
	Total:                                     0.013 (MW) /      0.107 (MB)

	Size of irrep 0 of <Ab|Cd> integrals:      0.013 (MW) /      0.100 (MB)
	Size of irrep 1 of <Ab|Cd> integrals:      0.007 (MW) /      0.052 (MB)
	Size of irrep 2 of <Ab|Cd> integrals:      0.007 (MW) /      0.052 (MB)
	Size of irrep 3 of <Ab|Cd> integrals:      0.006 (MW) /      0.049 (MB)
	Size of irrep 4 of <Ab|Cd> integrals:      0.002 (MW) /      0.018 (MB)
	Size of irrep 5 of <Ab|Cd> integrals:      0.005 (MW) /      0.043 (MB)
	Size of irrep 6 of <Ab|Cd> integrals:      0.005 (MW) /      0.043 (MB)
	Size of irrep 7 of <Ab|Cd> integrals:      0.006 (MW) /      0.049 (MB)
	Total:                                     0.051 (MW) /      0.406 (MB)

	Size of irrep 0 of <IA|BC> integrals:      0.001 (MW) /      0.010 (MB)
	Size of irrep 1 of <IA|BC> integrals:      0.000 (MW) /      0.004 (MB)
	Size of irrep 2 of <IA|BC> integrals:      0.000 (MW) /      0.004 (MB)
	Size of irrep 3 of <IA|BC> integrals:      0.001 (MW) /      0.004 (MB)
	Size of irrep 4 of <IA|BC> integrals:      0.000 (MW) /      0.002 (MB)
	Size of irrep 5 of <IA|BC> integrals:      0.001 (MW) /      0.006 (MB)
	Size of irrep 6 of <IA|BC> integrals:      0.001 (MW) /      0.006 (MB)
	Size of irrep 7 of <IA|BC> integrals:      0.001 (MW) /      0.005 (MB)
	Total:                                     0.005 (MW) /      0.042 (MB)

	Size of irrep 0 of <ia|bc> integrals:      0.001 (MW) /      0.008 (MB)
	Size of irrep 1 of <ia|bc> integrals:      0.000 (MW) /      0.002 (MB)
	Size of irrep 2 of <ia|bc> integrals:      0.000 (MW) /      0.002 (MB)
	Size of irrep 3 of <ia|bc> integrals:      0.000 (MW) /      0.002 (MB)
	Size of irrep 4 of <ia|bc> integrals:      0.000 (MW) /      0.000 (MB)
	Size of irrep 5 of <ia|bc> integrals:      0.000 (MW) /      0.002 (MB)
	Size of irrep 6 of <ia|bc> integrals:      0.000 (MW) /      0.002 (MB)
	Size of irrep 7 of <ia|bc> integrals:      0.000 (MW) /      0.002 (MB)
	Total:                                     0.002 (MW) /      0.020 (MB)

	Size of irrep 0 of <Ia|Bc> integrals:      0.002 (MW) /      0.013 (MB)
	Size of irrep 1 of <Ia|Bc> integrals:      0.000 (MW) /      0.004 (MB)
	Size of irrep 2 of <Ia|Bc> integrals:      0.000 (MW) /      0.004 (MB)
	Size of irrep 3 of <Ia|Bc> integrals:      0.001 (MW) /      0.006 (MB)
	Size of irrep 4 of <Ia|Bc> integrals:      0.000 (MW) /      0.002 (MB)
	Size of irrep 5 of <Ia|Bc> integrals:      0.001 (MW) /      0.008 (MB)
	Size of irrep 6 of <Ia|Bc> integrals:      0.001 (MW) /      0.008 (MB)
	Size of irrep 7 of <Ia|Bc> integrals:      0.001 (MW) /      0.006 (MB)
	Total:                                     0.006 (MW) /      0.050 (MB)

	Size of irrep 0 of <iA|bC> integrals:      0.001 (MW) /      0.007 (MB)
	Size of irrep 1 of <iA|bC> integrals:      0.000 (MW) /      0.002 (MB)
	Size of irrep 2 of <iA|bC> integrals:      0.000 (MW) /      0.002 (MB)
	Size of irrep 3 of <iA|bC> integrals:      0.000 (MW) /      0.002 (MB)
	Size of irrep 4 of <iA|bC> integrals:      0.000 (MW) /      0.000 (MB)
	Size of irrep 5 of <iA|bC> integrals:      0.000 (MW) /      0.001 (MB)
	Size of irrep 6 of <iA|bC> integrals:      0.000 (MW) /      0.001 (MB)
	Size of irrep 7 of <iA|bC> integrals:      0.000 (MW) /      0.002 (MB)
	Total:                                     0.002 (MW) /      0.017 (MB)

	Size of irrep 0 of tIjAb amplitudes:       0.000 (MW) /      0.001 (MB)
	Size of irrep 1 of tIjAb amplitudes:       0.000 (MW) /      0.000 (MB)
	Size of irrep 2 of tIjAb amplitudes:       0.000 (MW) /      0.000 (MB)
	Size of irrep 3 of tIjAb amplitudes:       0.000 (MW) /      0.000 (MB)
	Size of irrep 4 of tIjAb amplitudes:       0.000 (MW) /      0.000 (MB)
	Size of irrep 5 of tIjAb amplitudes:       0.000 (MW) /      0.001 (MB)
	Size of irrep 6 of tIjAb amplitudes:       0.000 (MW) /      0.001 (MB)
	Size of irrep 7 of tIjAb amplitudes:       0.000 (MW) /      0.000 (MB)
	Total:                                     0.000 (MW) /      0.002 (MB)

	Nuclear Rep. energy          =      0.00000000000000
	SCF energy                   =   -288.85109621755259
	One-electron energy          =     -5.67305539226394
	Two-electron (AA) energy     =      0.86183876938825
	Two-electron (BB) energy     =      0.00000000000000
	Two-electron (AB) energy     =      1.13101339576411
	Two-electron energy          =      1.99285216515236
	Reference energy             =   -288.85109621755288

*** tstop() called on n412-039.vsc4.prov at Tue Jan 26 18:14:30 2021
Module time:
	user time   =       0.04 seconds =       0.00 minutes
	system time =       0.11 seconds =       0.00 minutes
	total time  =          1 seconds =       0.02 minutes
Total time:
	user time   =       7.34 seconds =       0.12 minutes
	system time =       0.68 seconds =       0.01 minutes
	total time  =          3 seconds =       0.05 minutes
            **************************
            *                        *
            *        CCENERGY        *
            *                        *
            **************************

    Nuclear Rep. energy (wfn)     =    0.000000000000000
    SCF energy          (wfn)     = -288.851096217552595
    Reference energy    (file100) = -288.851096217552879

    Input parameters:
    -----------------
    Wave function   =     CCSD_T
    Reference wfn   =     UHF
    Brueckner       =     No
    Memory (Mbytes) =     250000.0
    Maxiter         =     50
    R_Convergence   =     1.0e-07
    E_Convergence   =     1.0e-06
    Restart         =     Yes
    DIIS            =     Yes
    AO Basis        =     NONE
    ABCD            =     NEW
    Cache Level     =     2
    Cache Type      =     LRU
    Print Level     =     1
    Num. of threads =     48
    # Amps to Print =     10
    Print MP2 Amps? =     No
    Analyze T2 Amps =     No
    Print Pair Ener =     No
    Local CC        =     No
    SCS-MP2         =     False
    SCSN-MP2        =     False
    SCS-CCSD        =     False

MP2 correlation energy -0.0471356619203278
                Solving CC Amplitude Equations
                ------------------------------
  Iter             Energy              RMS        T1Diag      D1Diag    New D1Diag    D2Diag
  ----     ---------------------    ---------   ----------  ----------  ----------   --------
     0        -0.047135661920328    0.000e+00    0.000000    0.000000    0.000000    0.000000
     1        -0.060661754768286    5.926e-02    0.006826    0.000000    0.000000    0.000000
     2        -0.066774209310004    2.337e-02    0.013097    0.000000    0.000000    0.000000
     3        -0.067140794844085    6.281e-03    0.015362    0.000000    0.000000    0.000000
     4        -0.067292542279504    1.249e-03    0.015597    0.000000    0.000000    0.000000
     5        -0.067229384784996    2.775e-04    0.015574    0.000000    0.000000    0.000000
     6        -0.067259084596316    8.820e-05    0.015604    0.000000    0.000000    0.000000
     7        -0.067252396189711    2.122e-05    0.015600    0.000000    0.000000    0.000000
     8        -0.067253275083944    3.463e-06    0.015601    0.000000    0.000000    0.000000
     9        -0.067253230195853    6.530e-07    0.015601    0.000000    0.000000    0.000000
    10        -0.067253236714642    1.983e-07    0.015601    0.000000    0.000000    0.000000
    11        -0.067253236497658    3.795e-08    0.015601    0.000000    0.000000    0.000000

    Iterations converged.

    Largest TIA Amplitudes:
              0   2         0.0234867611
              0   5         0.0168007205
              0   0        -0.0063172166
              0   3         0.0062838160
              2  20         0.0027981586
              1  18         0.0027981579
              2  19        -0.0002512813
              1  17        -0.0002512801
              0   6        -0.0000432257

    Largest Tia Amplitudes:
              0   0        -0.0060930857
              0   3         0.0019970615
              0   1         0.0018414839
              0   6         0.0001033639
              0   4         0.0000079208

    Largest TIJAB Amplitudes:
      2   1  14   1        -0.0419034083
      2   1  20  18        -0.0249806383
      2   1  14   4        -0.0233779096
      2   1  15   1        -0.0233779096
      2   1  15   4        -0.0217169484
      2   1  11   8         0.0195227174
      2   0  21   8        -0.0183452260
      1   0  21  11        -0.0183452256
      2   0  20   3        -0.0154305894
      1   0  18   3        -0.0154305890

    Largest TIjAb Amplitudes:
      0   0  21  23        -0.0797221634
      0   0  21  24        -0.0565763075
      2   0   8  23         0.0449351870
      1   0  11  23         0.0449351864
      0   0  22  23        -0.0448109203
      2   0   1  21        -0.0388404904
      2   0  14  18         0.0388404896
      1   0  14  21         0.0388404887
      1   0   1  18         0.0388404879
      1   0  12  23         0.0363404732

    SCF energy       (wfn)                    = -288.851096217552595
    Reference energy (file100)                = -288.851096217552879

    Opposite-spin MP2 correlation energy      =   -0.038783743276496
    Same-spin MP2 correlation energy          =   -0.008351918643832
    Singles MP2 correlation energy            =   -0.000000000000000
    MP2 correlation energy                    =   -0.047135661920328
      * MP2 total energy                      = -288.898231879473201

    Opposite-spin CCSD correlation energy     =   -0.057535502826140
    Same-spin CCSD correlation energy         =   -0.009717733671518
    Singles CCSD correlation energy           =    0.000000000000000
    CCSD correlation energy                   =   -0.067253236497658
      * CCSD total energy                     = -288.918349454050542

            **************************
            *                        *
            *        CCTRIPLES       *
            *                        *
            **************************

      * CCSD(T) total energy                     = -288.919715284548545
*** Psi4 exiting successfully. Buy a developer a beer!
