                               Psi4 1.2a1.dev939

  ==> Input File <==

--------------------------------------------------------------------------
# Any line starting with the # character is a comment line
memory 250000 mb
molecule molecule{
1 1
B          0.0000000000        0.0000000000        0.0000000000
}

set {
  reference rhf
  DOCC [     2,    0,    0,    0,    0,    0,    0,    0 ]
  basis aug-cc-pv(6+d)z
  scf_type OUT_OF_CORE
  freeze_core true
}

energy('ccsd')
--------------------------------------------------------------------------

    Molecular point group: d2h
    Geometry (in Angstrom), charge = 1, multiplicity = 1:

       Center              X                  Y                   Z               Mass
    ------------   -----------------  -----------------  -----------------  -----------------
           B          0.000000000000     0.000000000000     0.000000000000    11.009305406000

  Charge       = 1
  Multiplicity = 1
  Basis Set: AUG-CC-PV(6+D)Z
    Blend: AUG-CC-PV(6+D)Z

    Orbital Energies (a.u.)
    -----------------------

    Doubly Occupied:

       1Ag    -8.185920     2Ag    -0.873824

  @RHF Final Energy:   -24.23756931500653

   => Energetics <=

    Nuclear Repulsion Energy =              0.0000000000000000
    One-Electron Energy =                 -30.3556515021161459
    Two-Electron Energy =                   6.1180821871096152
    Total Energy =                        -24.2375693150065317
      * MP2 total energy                      =  -24.276580814495926
      * CCSD total energy                     =  -24.298798958003317
*** Psi4 exiting successfully. Buy a developer a beer!
