                               Psi4 1.2a1.dev939

  ==> Input File <==

--------------------------------------------------------------------------
# Any line starting with the # character is a comment line

memory 32000 mb

molecule molecule {
1 1
B          0.0000000000        0.0000000000        0.0000000000
}

set {
  reference rhf
  DOCC [     2,    0,    0,    0,    0,    0,    0,    0 ]

  basis aug-cc-pv(T+d)z
  scf_type OUT_OF_CORE
  freeze_core true
}

energy('ccsd')
--------------------------------------------------------------------------

    Molecular point group: d2h
    Geometry (in Angstrom), charge = 1, multiplicity = 1:

       Center              X                  Y                   Z               Mass
    ------------   -----------------  -----------------  -----------------  -----------------
           B          0.000000000000     0.000000000000     0.000000000000    11.009305406000

  Charge       = 1
  Multiplicity = 1
  Basis Set: AUG-CC-PV(T+D)Z
    Blend: AUG-CC-PV(T+D)Z

    Orbital Energies (a.u.)
    -----------------------

    Doubly Occupied:

       1Ag    -8.185320     2Ag    -0.873753

  @RHF Final Energy:   -24.23681570008753

   => Energetics <=

    Nuclear Repulsion Energy =              0.0000000000000000
    One-Electron Energy =                 -30.3554851139105502
    Two-Electron Energy =                   6.1186694138230209
    Total Energy =                        -24.2368157000875293
      * MP2 total energy                      =  -24.272820464577663
      * CCSD total energy                     =  -24.296626755598144
*** Psi4 exiting successfully. Buy a developer a beer!
