                               Psi4 1.2a1.dev939

  ==> Input File <==

--------------------------------------------------------------------------
# Any line starting with the # character is a comment line

memory 32000 mb

molecule molecule {
1 1
B          0.0000000000        0.0000000000        0.0000000000
}

set {
  reference rhf
  DOCC [     2,    0,    0,    0,    0,    0,    0,    0 ]

  basis aug-cc-pv(5+d)z
  scf_type OUT_OF_CORE
  freeze_core true
}

energy('ccsd')
--------------------------------------------------------------------------

    Molecular point group: d2h
    Geometry (in Angstrom), charge = 1, multiplicity = 1:

       Center              X                  Y                   Z               Mass
    ------------   -----------------  -----------------  -----------------  -----------------
           B          0.000000000000     0.000000000000     0.000000000000    11.009305406000

  Charge       = 1
  Multiplicity = 1
  Basis Set: AUG-CC-PV(5+D)Z
    Blend: AUG-CC-PV(5+D)Z

    Orbital Energies (a.u.)
    -----------------------

    Doubly Occupied:

       1Ag    -8.185955     2Ag    -0.873832

  @RHF Final Energy:   -24.23754648054963

   => Energetics <=

    Nuclear Repulsion Energy =              0.0000000000000000
    One-Electron Energy =                 -30.3555174215935324
    Two-Electron Energy =                   6.1179709410439083
    Total Energy =                        -24.2375464805496250
      * MP2 total energy                      =  -24.276267285927162
      * CCSD total energy                     =  -24.298707841344697
*** Psi4 exiting successfully. Buy a developer a beer!
