                               Psi4 1.2a1.dev938

  ==> Input File <==

--------------------------------------------------------------------------
# Any line starting with the # character is a comment line
memory 250000 mb
molecule molecule{
0 2
Cl          0.0000000000        0.0000000000        0.0000000000
}

set {
  reference uhf
  basis aug-cc-pv(d+d)z
  scf_type OUT_OF_CORE
  freeze_core true
}

energy('ccsd')
--------------------------------------------------------------------------

    Molecular point group: d2h
    Geometry (in Angstrom), charge = 0, multiplicity = 2:

       Center              X                  Y                   Z               Mass
    ------------   -----------------  -----------------  -----------------  -----------------
          CL          0.000000000000     0.000000000000     0.000000000000    34.968852682000

  Charge       = 0
  Multiplicity = 2
  Basis Set: AUG-CC-PV(D+D)Z
    Blend: AUG-CC-PV(D+D)Z

    Orbital Energies (a.u.)
    -----------------------

    Alpha Occupied:

       1Ag  -104.890778     2Ag   -10.614103     1B3u   -8.099860
       1B2u   -8.074358     1B1u   -8.074358     3Ag    -1.137772
       2B3u   -0.580303     2B2u   -0.503933     2B1u   -0.503933

    Alpha Virtual:

       3B3u    0.124811     4Ag     0.135216     3B2u    0.135778
       3B1u    0.135778     5Ag     0.407042     1B2g    0.416841
       1B1g    0.416841     6Ag     0.449040     1B3g    0.449040
       4B3u    0.837112     4B2u    0.881224     4B1u    0.881224
       7Ag     1.092981     8Ag     1.213600     2B1g    1.223506
       2B2g    1.223506     9Ag     1.265348     2B3g    1.265348
      10Ag     5.895912     3B1g    5.905566     3B2g    5.905566
      11Ag     5.934626     3B3g    5.934626

    Beta Occupied:

       1Ag  -104.879542     2Ag   -10.602629     1B1u   -8.068157
       1B2u   -8.068157     1B3u   -8.051527     3Ag    -1.015988
       2B1u   -0.479755     2B2u   -0.479755

    Beta Virtual:

       2B3u   -0.046873     3B1u    0.137139     3B2u    0.137139
       4Ag     0.142204     3B3u    0.151075     1B3g    0.452353
       5Ag     0.452353     1B1g    0.469719     1B2g    0.469719
       6Ag     0.477211     4B1u    0.890530     4B2u    0.890530
       4B3u    0.925437     7Ag     1.120657     2B3g    1.271826
       8Ag     1.271826     2B2g    1.278512     2B1g    1.278512
       9Ag     1.281823    10Ag     5.910373     3B2g    5.916910
       3B1g    5.916910    11Ag     5.936492     3B3g    5.936492

    Final Occupation by Irrep:
             Ag   B1g   B2g   B3g    Au   B1u   B2u   B3u
    DOCC [     3,    0,    0,    0,    0,    2,    2,    1 ]
    SOCC [     0,    0,    0,    0,    0,    0,    0,    1 ]

  Energy converged.

  @UHF Final Energy:  -459.47305700336631

   => Energetics <=

    Nuclear Repulsion Energy =              0.0000000000000000
    One-Electron Energy =                -634.8212047995000376
    Two-Electron Energy =                 175.3481477961337305
    PCM Polarization Energy =               0.0000000000000000
    Total Energy =                       -459.4730570033663071

    Alert: EFP and PCM quantities not currently incorporated into SCF psivars.
  UHF NO Occupations:
  HONO-2 :    2B2u 1.9999113
  HONO-1 :    3 Ag 1.9961929
  HONO-0 :    2B3u 1.0000000
  LUNO+0 :    4 Ag 0.0038071
  LUNO+1 :    3B2u 0.0000887
  LUNO+2 :    3B1u 0.0000887
  LUNO+3 :    3B3u 0.0000008

Properties will be evaluated at   0.000000,   0.000000,   0.000000 Bohr

Properties computed using the SCF density matrix

  Nuclear Dipole Moment: (a.u.)
     X:     0.0000      Y:     0.0000      Z:     0.0000

  Electronic Dipole Moment: (a.u.)
     X:     0.0000      Y:     0.0000      Z:     0.0000

  Dipole Moment: (a.u.)
     X:     0.0000      Y:     0.0000      Z:     0.0000     Total:     0.0000

  Dipole Moment: (Debye)
     X:     0.0000      Y:     0.0000      Z:     0.0000     Total:     0.0000

*** tstop() called on cqc05 at Thu Aug 20 19:56:27 2020
Module time:
	user time   =       0.28 seconds =       0.00 minutes
	system time =       0.02 seconds =       0.00 minutes
	total time  =          0 seconds =       0.00 minutes
Total time:
	user time   =       0.28 seconds =       0.00 minutes
	system time =       0.02 seconds =       0.00 minutes
	total time  =          0 seconds =       0.00 minutes

*** tstart() called on cqc05
*** at Thu Aug 20 19:56:27 2020

	Wfn Parameters:
	--------------------
	Wavefunction         = CCSD
	Number of irreps     = 8
	Number of MOs        = 32
	Number of active MOs = 27
	AO-Basis             = NONE
	Semicanonical        = false
	Reference            = UHF
	Print Level          = 1

	IRREP	# MOs	# FZDC	# DOCC	# SOCC	# VIRT	# FZVR
	-----	-----	------	------	------	------	------
	 Ag	   11	    2	    1	    0	    8	    0
	 B1g	   3	    0	    0	    0	    3	    0
	 B2g	   3	    0	    0	    0	    3	    0
	 B3g	   3	    0	    0	    0	    3	    0
	 Au	   0	    0	    0	    0	    0	    0
	 B1u	   4	    1	    1	    0	    2	    0
	 B2u	   4	    1	    1	    0	    2	    0
	 B3u	   4	    1	    0	    1	    2	    0
	Transforming integrals...
	IWL integrals will be deleted.
	(OO|OO)...
	Presorting SO-basis two-electron integrals.
	Sorting File: SO Ints (nn|nn) nbuckets = 1
	Transforming the one-electron integrals and constructing Fock matrices
	Starting AA/AB first half-transformation.
	Sorting AA/AB half-transformed integrals.
	Starting BB first half-transformation.
	Sorting BB half-transformed integrals.
	First half integral transformation complete.
	Starting AA second half-transformation.
	Starting AB second half-transformation.
	Starting BB second half-transformation.
	Two-electron integral transformation complete.
	(OO|OV)...
	Starting AA second half-transformation.
	Starting AB second half-transformation.
	Starting BB second half-transformation.
	Two-electron integral transformation complete.
	(OO|VV)...
	Starting AA second half-transformation.
	Starting AB second half-transformation.
	Starting BB second half-transformation.
	Two-electron integral transformation complete.
	(OV|OO)...
	Starting AA/AB first half-transformation.
	Sorting AA/AB half-transformed integrals.
	Starting BB first half-transformation.
	Sorting BB half-transformed integrals.
	First half integral transformation complete.
	Starting AA second half-transformation.
	Starting AB second half-transformation.
	Starting BB second half-transformation.
	Two-electron integral transformation complete.
	(OV|OV)...
	Starting AA second half-transformation.
	Starting AB second half-transformation.
	Starting BB second half-transformation.
	Two-electron integral transformation complete.
	(OV|VV)...
	Starting AA second half-transformation.
	Starting AB second half-transformation.
	Starting BB second half-transformation.
	Two-electron integral transformation complete.
	(VV|OO)...
	Starting AA/AB first half-transformation.
	Sorting AA/AB half-transformed integrals.
	Starting BB first half-transformation.
	Sorting BB half-transformed integrals.
	First half integral transformation complete.
	Starting AA second half-transformation.
	Starting AB second half-transformation.
	Starting BB second half-transformation.
	Two-electron integral transformation complete.
	(VV|OV)...
	Starting AA second half-transformation.
	Starting AB second half-transformation.
	Starting BB second half-transformation.
	Two-electron integral transformation complete.
	(VV|VV)...
	Starting AA second half-transformation.
	Starting AB second half-transformation.
	Starting BB second half-transformation.
	Two-electron integral transformation complete.
	Frozen core energy     =   -444.73669904023689

	Size of irrep 0 of <AB|CD> integrals:      0.002 (MW) /      0.013 (MB)
	Size of irrep 1 of <AB|CD> integrals:      0.001 (MW) /      0.011 (MB)
	Size of irrep 2 of <AB|CD> integrals:      0.001 (MW) /      0.011 (MB)
	Size of irrep 3 of <AB|CD> integrals:      0.001 (MW) /      0.011 (MB)
	Size of irrep 4 of <AB|CD> integrals:      0.000 (MW) /      0.003 (MB)
	Size of irrep 5 of <AB|CD> integrals:      0.001 (MW) /      0.006 (MB)
	Size of irrep 6 of <AB|CD> integrals:      0.001 (MW) /      0.006 (MB)
	Size of irrep 7 of <AB|CD> integrals:      0.001 (MW) /      0.006 (MB)
	Total:                                     0.008 (MW) /      0.067 (MB)

	Size of irrep 0 of <ab|cd> integrals:      0.002 (MW) /      0.014 (MB)
	Size of irrep 1 of <ab|cd> integrals:      0.002 (MW) /      0.012 (MB)
	Size of irrep 2 of <ab|cd> integrals:      0.002 (MW) /      0.012 (MB)
	Size of irrep 3 of <ab|cd> integrals:      0.001 (MW) /      0.011 (MB)
	Size of irrep 4 of <ab|cd> integrals:      0.000 (MW) /      0.004 (MB)
	Size of irrep 5 of <ab|cd> integrals:      0.001 (MW) /      0.008 (MB)
	Size of irrep 6 of <ab|cd> integrals:      0.001 (MW) /      0.008 (MB)
	Size of irrep 7 of <ab|cd> integrals:      0.001 (MW) /      0.010 (MB)
	Total:                                     0.010 (MW) /      0.079 (MB)

	Size of irrep 0 of <Ab|Cd> integrals:      0.011 (MW) /      0.088 (MB)
	Size of irrep 1 of <Ab|Cd> integrals:      0.006 (MW) /      0.046 (MB)
	Size of irrep 2 of <Ab|Cd> integrals:      0.006 (MW) /      0.046 (MB)
	Size of irrep 3 of <Ab|Cd> integrals:      0.005 (MW) /      0.044 (MB)
	Size of irrep 4 of <Ab|Cd> integrals:      0.002 (MW) /      0.012 (MB)
	Size of irrep 5 of <Ab|Cd> integrals:      0.003 (MW) /      0.028 (MB)
	Size of irrep 6 of <Ab|Cd> integrals:      0.003 (MW) /      0.028 (MB)
	Size of irrep 7 of <Ab|Cd> integrals:      0.004 (MW) /      0.033 (MB)
	Total:                                     0.041 (MW) /      0.325 (MB)

	Size of irrep 0 of <IA|BC> integrals:      0.001 (MW) /      0.012 (MB)
	Size of irrep 1 of <IA|BC> integrals:      0.001 (MW) /      0.004 (MB)
	Size of irrep 2 of <IA|BC> integrals:      0.001 (MW) /      0.004 (MB)
	Size of irrep 3 of <IA|BC> integrals:      0.001 (MW) /      0.004 (MB)
	Size of irrep 4 of <IA|BC> integrals:      0.000 (MW) /      0.003 (MB)
	Size of irrep 5 of <IA|BC> integrals:      0.001 (MW) /      0.007 (MB)
	Size of irrep 6 of <IA|BC> integrals:      0.001 (MW) /      0.007 (MB)
	Size of irrep 7 of <IA|BC> integrals:      0.001 (MW) /      0.007 (MB)
	Total:                                     0.006 (MW) /      0.048 (MB)

	Size of irrep 0 of <ia|bc> integrals:      0.001 (MW) /      0.010 (MB)
	Size of irrep 1 of <ia|bc> integrals:      0.000 (MW) /      0.004 (MB)
	Size of irrep 2 of <ia|bc> integrals:      0.000 (MW) /      0.004 (MB)
	Size of irrep 3 of <ia|bc> integrals:      0.001 (MW) /      0.004 (MB)
	Size of irrep 4 of <ia|bc> integrals:      0.000 (MW) /      0.002 (MB)
	Size of irrep 5 of <ia|bc> integrals:      0.001 (MW) /      0.006 (MB)
	Size of irrep 6 of <ia|bc> integrals:      0.001 (MW) /      0.006 (MB)
	Size of irrep 7 of <ia|bc> integrals:      0.001 (MW) /      0.005 (MB)
	Total:                                     0.005 (MW) /      0.042 (MB)

	Size of irrep 0 of <Ia|Bc> integrals:      0.002 (MW) /      0.013 (MB)
	Size of irrep 1 of <Ia|Bc> integrals:      0.001 (MW) /      0.005 (MB)
	Size of irrep 2 of <Ia|Bc> integrals:      0.001 (MW) /      0.005 (MB)
	Size of irrep 3 of <Ia|Bc> integrals:      0.001 (MW) /      0.004 (MB)
	Size of irrep 4 of <Ia|Bc> integrals:      0.000 (MW) /      0.003 (MB)
	Size of irrep 5 of <Ia|Bc> integrals:      0.001 (MW) /      0.008 (MB)
	Size of irrep 6 of <Ia|Bc> integrals:      0.001 (MW) /      0.008 (MB)
	Size of irrep 7 of <Ia|Bc> integrals:      0.001 (MW) /      0.009 (MB)
	Total:                                     0.007 (MW) /      0.053 (MB)

	Size of irrep 0 of <iA|bC> integrals:      0.001 (MW) /      0.010 (MB)
	Size of irrep 1 of <iA|bC> integrals:      0.000 (MW) /      0.003 (MB)
	Size of irrep 2 of <iA|bC> integrals:      0.000 (MW) /      0.003 (MB)
	Size of irrep 3 of <iA|bC> integrals:      0.001 (MW) /      0.004 (MB)
	Size of irrep 4 of <iA|bC> integrals:      0.000 (MW) /      0.002 (MB)
	Size of irrep 5 of <iA|bC> integrals:      0.001 (MW) /      0.006 (MB)
	Size of irrep 6 of <iA|bC> integrals:      0.001 (MW) /      0.006 (MB)
	Size of irrep 7 of <iA|bC> integrals:      0.001 (MW) /      0.004 (MB)
	Total:                                     0.005 (MW) /      0.039 (MB)

	Size of irrep 0 of tIjAb amplitudes:       0.000 (MW) /      0.003 (MB)
	Size of irrep 1 of tIjAb amplitudes:       0.000 (MW) /      0.001 (MB)
	Size of irrep 2 of tIjAb amplitudes:       0.000 (MW) /      0.001 (MB)
	Size of irrep 3 of tIjAb amplitudes:       0.000 (MW) /      0.001 (MB)
	Size of irrep 4 of tIjAb amplitudes:       0.000 (MW) /      0.000 (MB)
	Size of irrep 5 of tIjAb amplitudes:       0.000 (MW) /      0.001 (MB)
	Size of irrep 6 of tIjAb amplitudes:       0.000 (MW) /      0.001 (MB)
	Size of irrep 7 of tIjAb amplitudes:       0.000 (MW) /      0.001 (MB)
	Total:                                     0.001 (MW) /      0.007 (MB)

	Nuclear Rep. energy          =      0.00000000000000
	SCF energy                   =   -459.47305700336631
	One-electron energy          =    -24.77127554152854
	Two-electron (AA) energy     =      2.59306956809140
	Two-electron (BB) energy     =      1.25934364542227
	Two-electron (AB) energy     =      6.18250436488548
	Two-electron energy          =     10.03491757839915
	Reference energy             =   -459.47305700336631

*** tstop() called on cqc05 at Thu Aug 20 19:56:27 2020
Module time:
	user time   =       0.03 seconds =       0.00 minutes
	system time =       0.04 seconds =       0.00 minutes
	total time  =          0 seconds =       0.00 minutes
Total time:
	user time   =       0.31 seconds =       0.01 minutes
	system time =       0.06 seconds =       0.00 minutes
	total time  =          0 seconds =       0.00 minutes

*** tstart() called on cqc05
*** at Thu Aug 20 19:56:27 2020

            **************************
            *                        *
            *        CCENERGY        *
            *                        *
            **************************

    Nuclear Rep. energy (wfn)     =    0.000000000000000
    SCF energy          (wfn)     = -459.473057003366307
    Reference energy    (file100) = -459.473057003366307

    Input parameters:
    -----------------
    Wave function   =     CCSD
    Reference wfn   =     UHF
    Brueckner       =     No
    Memory (Mbytes) =     250000.0
    Maxiter         =     50
    R_Convergence   =     1.0e-07
    E_Convergence   =     1.0e-06
    Restart         =     Yes
    DIIS            =     Yes
    AO Basis        =     NONE
    ABCD            =     NEW
    Cache Level     =     2
    Cache Type      =     LRU
    Print Level     =     1
    Num. of threads =     4
    # Amps to Print =     10
    Print MP2 Amps? =     No
    Analyze T2 Amps =     No
    Print Pair Ener =     No
    Local CC        =     No
    SCS-MP2         =     False
    SCSN-MP2        =     False
    SCS-CCSD        =     False

MP2 correlation energy -0.1227479077720328
                Solving CC Amplitude Equations
                ------------------------------
  Iter             Energy              RMS        T1Diag      D1Diag    New D1Diag    D2Diag
  ----     ---------------------    ---------   ----------  ----------  ----------   --------
     0        -0.122747907772033    0.000e+00    0.000000    0.000000    0.000000    0.000000
     1        -0.138113944933655    3.747e-02    0.005966    0.000000    0.000000    0.000000
     2        -0.142028132065245    1.246e-02    0.009012    0.000000    0.000000    0.000000
     3        -0.142367898469931    2.984e-03    0.009872    0.000000    0.000000    0.000000
     4        -0.142362738331262    6.701e-04    0.009919    0.000000    0.000000    0.000000
     5        -0.142361113233762    2.703e-04    0.009928    0.000000    0.000000    0.000000
     6        -0.142361822549316    8.128e-05    0.009921    0.000000    0.000000    0.000000
     7        -0.142362119872764    1.883e-05    0.009920    0.000000    0.000000    0.000000
     8        -0.142362016952117    4.487e-06    0.009920    0.000000    0.000000    0.000000
     9        -0.142361996107478    1.002e-06    0.009920    0.000000    0.000000    0.000000
    10        -0.142361996865363    2.591e-07    0.009920    0.000000    0.000000    0.000000
    11        -0.142361995335990    6.528e-08    0.009920    0.000000    0.000000    0.000000
    11        -0.142361995335990    6.528e-08    0.009920    0.000000    0.000000    0.000000

    Iterations converged.

    CCSD corr. energy   =   -0.142361995335990
    PPL corr. energy    =    0.031790594614194
    OS PPL corr. energy =    0.025606942019172
    SS PPL corr. energy =    0.006183652595022
    Largest TIA Amplitudes:
              3  21         0.0077384582
              1  17         0.0035849512
              2  19         0.0035849423
              0   1         0.0028874405
              3  22        -0.0028319440
              0   3         0.0025675217
              0   4         0.0016034042
              0   0         0.0009376867
              2  20         0.0001030860
              1  18         0.0001030800

    Largest Tia Amplitudes:
              0   2        -0.0195768767
              0   5         0.0112007166
              2  19         0.0052094944
              1  17         0.0052094845
              0   3         0.0035989433
              2  20        -0.0005951748
              1  18        -0.0005951682
              0   6         0.0003311147
              0   0         0.0001312998

    Largest TIJAB Amplitudes:
      2   1  14   2        -0.0413136646
      3   1  11   1        -0.0331941163
      3   2   8   1        -0.0331941157
      3   1  14   8         0.0210215814
      3   1  11   2        -0.0210215813
      3   2   8   2         0.0210215811
      3   2  14  11         0.0210215811
      2   1  14   5        -0.0204418818
      2   1  15   2        -0.0204418818
      3   1  22  18        -0.0183293491

    Largest Tijab Amplitudes:
      2   1  14   1        -0.0399077059
      2   0  21   8        -0.0201741617
      1   0  21  11        -0.0201741612
      2   1  11   8         0.0198127781
      2   1  14   4        -0.0191090239
      2   1  15   1        -0.0191090239
      2   1  20  18        -0.0179059725
      2   1  15   4        -0.0166505186
      1   0  21  12        -0.0108835111
      2   0  21   9        -0.0108835108

    Largest TIjAb Amplitudes:
      3   0   1  21        -0.0558449954
      1   0  11  21         0.0485465826
      2   0   8  21         0.0485465821

      * MP2 total energy                      = -459.595804911138316
      * CCSD total energy                     = -459.615418998702296
*** Psi4 exiting successfully. Buy a developer a beer!
