                               Psi4 1.2a1.dev938

  ==> Input File <==

--------------------------------------------------------------------------
# Any line starting with the # character is a comment line
memory 250000 mb
molecule molecule{
0 2
Cl          0.0000000000        0.0000000000        0.0000000000
}

set {
  reference uhf
  basis aug-cc-pv(5+d)z
  scf_type OUT_OF_CORE
  freeze_core true
}

energy('ccsd')
--------------------------------------------------------------------------

    Molecular point group: d2h
    Geometry (in Angstrom), charge = 0, multiplicity = 2:

       Center              X                  Y                   Z               Mass
    ------------   -----------------  -----------------  -----------------  -----------------
          CL          0.000000000000     0.000000000000     0.000000000000    34.968852682000

  Charge       = 0
  Multiplicity = 2
  Basis Set: AUG-CC-PV(5+D)Z
    Blend: AUG-CC-PV(5+D)Z

    Orbital Energies (a.u.)
    -----------------------

    Alpha Occupied:

       1Ag  -104.889532     2Ag   -10.612212     1B3u   -8.097998
       1B2u   -8.073712     1B1u   -8.073712     3Ag    -1.136103
       2B3u   -0.581805     2B2u   -0.502505     2B1u   -0.502505

    Alpha Virtual:

       3B3u    0.081270     3B2u    0.086859     3B1u    0.086859
       4Ag     0.086869     5Ag     0.223423     1B2g    0.226686
       1B1g    0.226686     6Ag     0.237847     1B3g    0.237847
       4B3u    0.377285     4B2u    0.398029     4B1u    0.398029
       7Ag     0.510119     8Ag     0.552256     2B1g    0.561729
       2B2g    0.561729     2B3g    0.595649     9Ag     0.595649
       5B3u    0.600347     5B1u    0.602057     5B2u    0.602057
       6B3u    0.607272     1Au     0.607272     6B2u    0.616453
       6B1u    0.616453    10Ag     1.319463     3B2g    1.321306
       3B1g    1.321306    11Ag     1.326454     3B3g    1.326454
       4B2g    1.334581     4B1g    1.334581     7B3u    1.342097
       4B3g    1.345990    12Ag     1.345990    13Ag     1.366597
       5B1g    1.376604     5B2g    1.376604     7B2u    1.386272
       7B1u    1.386272    14Ag     1.411216     5B3g    1.411216
       8B3u    1.495390     8B2u    1.499609     8B1u    1.499609
       2Au     1.511986     9B3u    1.511986     9B2u    1.534662
       9B1u    1.534662    15Ag     1.934984    10B3u    3.194669
      10B2u    3.201091    10B1u    3.201091    11B3u    3.220515
       3Au     3.220515    16Ag     3.243043     6B1g    3.247164
       6B2g    3.247164    11B2u    3.253668    11B1u    3.253668
      17Ag     3.258841     6B3g    3.258841     7B1g    3.276795
       7B2g    3.276795    18Ag     3.300725     7B3g    3.300725
      19Ag     3.341035     8B1g    3.351243     8B2g    3.351243
      12B3u    3.383254    12B1u    3.385075    12B2u    3.385075
      20Ag     3.385928     8B3g    3.385928    13B3u    3.390562
       4Au     3.390562    13B2u    3.399787    13B1u    3.399787
      14B3u    3.412886     5Au     3.412886    14B2u    3.430135
      14B1u    3.430135    15B3u    4.368380    15B2u    4.418956
      15B1u    4.418956    16B3u    6.540861    16B2u    6.547131
      16B1u    6.547131    17B3u    6.566147     6Au     6.566147
      17B2u    6.598637    17B1u    6.598637    21Ag     6.703907
      22Ag     7.224192     9B1g    7.234232     9B2g    7.234232
      23Ag     7.270260     9B3g    7.270260    24Ag     7.369610
      10B1g    7.373240    10B2g    7.373240    25Ag     7.384321
      10B3g    7.384321    11B1g    7.403060    11B2g    7.403060
      26Ag     7.432735    11B3g    7.432735    18B3u    7.646525
      18B2u    7.649192    18B1u    7.649192    19B3u    7.657225
       7Au     7.657225    19B2u    7.670718    19B1u    7.670718
       8Au     7.689834    20B3u    7.689834    20B2u    7.714813
      20B1u    7.714813    27Ag    20.474218    12B1g   20.481560
      12B2g   20.481560    12B3g   20.504037    28Ag    20.504037
      21B3u   37.911267    21B2u   37.932715    21B1u   37.932715
      29Ag    72.677850

    Beta Occupied:

       1Ag  -104.877731     2Ag   -10.601100     1B1u   -8.067697
       1B2u   -8.067697     1B3u   -8.048181     3Ag    -1.014446
       2B1u   -0.480923     2B2u   -0.480923

    Beta Virtual:

       2B3u   -0.040815     3B1u    0.087336     3B2u    0.087336
       4Ag     0.090370     3B3u    0.095129     5Ag     0.237494
       1B3g    0.237494     1B1g    0.238483     1B2g    0.238483
       6Ag     0.239041     4B1u    0.401168     4B2u    0.401168
       4B3u    0.422830     7Ag     0.523740     2B3g    0.598004
       8Ag     0.598004     5B3u    0.606075     5B2u    0.607107
       5B1u    0.607107     6B3u    0.610357     1Au     0.610357
       6B2u    0.615932     6B1u    0.615932     2B2g    0.620626
       2B1g    0.620626     9Ag     0.629730    10Ag     1.326523
       3B1g    1.327722     3B2g    1.327722    11Ag     1.331335
       3B3g    1.331335     4B2g    1.337308     4B1g    1.337308
       4B3g    1.345317    12Ag     1.345317     7B1u    1.393905
       7B2u    1.393905     7B3u    1.410045    13Ag     1.414485
       5B3g    1.414485     5B2g    1.417355     5B1g    1.417355
      14Ag     1.418692     8B3u    1.523414     8B1u    1.524445
       8B2u    1.524445     2Au     1.528042     9B3u    1.528042
       9B2u    1.534440     9B1u    1.534440    15Ag     1.957427
      10B3u    3.236596    10B1u    3.238674    10B2u    3.238674
      11B3u    3.244837     3Au     3.244837    11B2u    3.254854
      11B1u    3.254854    16Ag     3.270047     6B2g    3.272121
       6B1g    3.272121    17Ag     3.278129     6B3g    3.278129
       7B1g    3.287609     7B2g    3.287609    18Ag     3.300168
       7B3g    3.300168    19Ag     3.365150     8B2g    3.370659
       8B1g    3.370659    20Ag     3.387449     8B3g    3.387449
      12B3u    3.396089    12B1u    3.397397    12B2u    3.397397
      13B3u    3.401330     4Au     3.401330    13B2u    3.407912
      13B1u    3.407912    14B3u    3.417186     5Au     3.417186
      14B2u    3.429209    14B1u    3.429209    15B1u    4.426128
      15B2u    4.426128    15B3u    4.426655    16B3u    6.568264
      16B1u    6.571703    16B2u    6.571703    17B3u    6.582084
       6Au     6.582084    17B2u    6.599579    17B1u    6.599579
      21Ag     6.722224    22Ag     7.246444     9B2g    7.252817
       9B1g    7.252817    23Ag     7.274018     9B3g    7.274018
      24Ag     7.396306    10B2g    7.398485    10B1g    7.398485
      25Ag     7.405084    10B3g    7.405084    11B1g    7.416305
      11B2g    7.416305    26Ag     7.432821    11B3g    7.432821
      18B3u    7.669465    18B1u    7.671228    18B2u    7.671228
      19B3u    7.676532     7Au     7.676532    19B2u    7.685416
      19B1u    7.685416     8Au     7.697951    20B3u    7.697951
      20B2u    7.714230    20B1u    7.714230    27Ag    20.494115
      12B2g   20.497192    12B1g   20.497192    12B3g   20.506650
      28Ag    20.506650    21B1u   37.937188    21B2u   37.937188
      21B3u   37.947431    29Ag    72.685881

    Final Occupation by Irrep:
             Ag   B1g   B2g   B3g    Au   B1u   B2u   B3u
    DOCC [     3,    0,    0,    0,    0,    2,    2,    1 ]
    SOCC [     0,    0,    0,    0,    0,    0,    0,    1 ]

  Energy converged.

  @UHF Final Energy:  -459.48975783299363

   => Energetics <=

    Nuclear Repulsion Energy =              0.0000000000000000
    One-Electron Energy =                -634.8707342905910309
    Two-Electron Energy =                 175.3809764575974270
    Total Energy =                       -459.4897578329936323

  UHF NO Occupations:
  HONO-2 :    2B2u 1.9996191
  HONO-1 :    3 Ag 1.9953556
  HONO-0 :    2B3u 1.0000000
  LUNO+0 :    4 Ag 0.0046444
  LUNO+1 :    3B2u 0.0003809
  LUNO+2 :    3B1u 0.0003809
  LUNO+3 :    3B3u 0.0000039

Properties will be evaluated at   0.000000,   0.000000,   0.000000 Bohr

Properties computed using the SCF density matrix

  Nuclear Dipole Moment: (a.u.)
     X:     0.0000      Y:     0.0000      Z:     0.0000

  Electronic Dipole Moment: (a.u.)
     X:     0.0000      Y:     0.0000      Z:     0.0000

  Dipole Moment: (a.u.)
     X:     0.0000      Y:     0.0000      Z:     0.0000     Total:     0.0000

  Dipole Moment: (Debye)
     X:     0.0000      Y:     0.0000      Z:     0.0000     Total:     0.0000

*** tstop() called on cqc05 at Fri Aug 21 06:49:52 2020
Module time:
	user time   =       8.57 seconds =       0.14 minutes
	system time =       0.27 seconds =       0.00 minutes
	total time  =          8 seconds =       0.13 minutes
Total time:
	user time   =       8.57 seconds =       0.14 minutes
	system time =       0.27 seconds =       0.00 minutes
	total time  =          8 seconds =       0.13 minutes

*** tstart() called on cqc05
*** at Fri Aug 21 06:49:52 2020

	Wfn Parameters:
	--------------------
	Wavefunction         = CCSD
	Number of irreps     = 8
	Number of MOs        = 136
	Number of active MOs = 131
	AO-Basis             = NONE
	Semicanonical        = false
	Reference            = UHF
	Print Level          = 1

	IRREP	# MOs	# FZDC	# DOCC	# SOCC	# VIRT	# FZVR
	-----	-----	------	------	------	------	------
	 Ag	   29	    2	    1	    0	    26	    0
	 B1g	   12	    0	    0	    0	    12	    0
	 B2g	   12	    0	    0	    0	    12	    0
	 B3g	   12	    0	    0	    0	    12	    0
	 Au	   8	    0	    0	    0	    8	    0
	 B1u	   21	    1	    1	    0	    19	    0
	 B2u	   21	    1	    1	    0	    19	    0
	 B3u	   21	    1	    0	    1	    19	    0
	Transforming integrals...
	IWL integrals will be deleted.
	(OO|OO)...
	Presorting SO-basis two-electron integrals.
	Sorting File: SO Ints (nn|nn) nbuckets = 1
	Transforming the one-electron integrals and constructing Fock matrices
	Starting AA/AB first half-transformation.
	Sorting AA/AB half-transformed integrals.
	Starting BB first half-transformation.
	Sorting BB half-transformed integrals.
	First half integral transformation complete.
	Starting AA second half-transformation.
	Starting AB second half-transformation.
	Starting BB second half-transformation.
	Two-electron integral transformation complete.
	(OO|OV)...
	Starting AA second half-transformation.
	Starting AB second half-transformation.
	Starting BB second half-transformation.
	Two-electron integral transformation complete.
	(OO|VV)...
	Starting AA second half-transformation.
	Starting AB second half-transformation.
	Starting BB second half-transformation.
	Two-electron integral transformation complete.
	(OV|OO)...
	Starting AA/AB first half-transformation.
	Sorting AA/AB half-transformed integrals.
	Starting BB first half-transformation.
	Sorting BB half-transformed integrals.
	First half integral transformation complete.
	Starting AA second half-transformation.
	Starting AB second half-transformation.
	Starting BB second half-transformation.
	Two-electron integral transformation complete.
	(OV|OV)...
	Starting AA second half-transformation.
	Starting AB second half-transformation.
	Starting BB second half-transformation.
	Two-electron integral transformation complete.
	(OV|VV)...
	Starting AA second half-transformation.
	Starting AB second half-transformation.
	Starting BB second half-transformation.
	Two-electron integral transformation complete.
	(VV|OO)...
	Starting AA/AB first half-transformation.
	Sorting AA/AB half-transformed integrals.
	Starting BB first half-transformation.
	Sorting BB half-transformed integrals.
	First half integral transformation complete.
	Starting AA second half-transformation.
	Starting AB second half-transformation.
	Starting BB second half-transformation.
	Two-electron integral transformation complete.
	(VV|OV)...
	Starting AA second half-transformation.
	Starting AB second half-transformation.
	Starting BB second half-transformation.
	Two-electron integral transformation complete.
	(VV|VV)...
	Starting AA second half-transformation.
	Starting AB second half-transformation.
	Starting BB second half-transformation.
	Two-electron integral transformation complete.
	Frozen core energy     =   -444.74722274286785

	Size of irrep 0 of <AB|CD> integrals:      1.132 (MW) /      9.057 (MB)
	Size of irrep 1 of <AB|CD> integrals:      0.939 (MW) /      7.512 (MB)
	Size of irrep 2 of <AB|CD> integrals:      0.939 (MW) /      7.512 (MB)
	Size of irrep 3 of <AB|CD> integrals:      0.939 (MW) /      7.512 (MB)
	Size of irrep 4 of <AB|CD> integrals:      0.796 (MW) /      6.365 (MB)
	Size of irrep 5 of <AB|CD> integrals:      1.094 (MW) /      8.753 (MB)
	Size of irrep 6 of <AB|CD> integrals:      1.094 (MW) /      8.753 (MB)
	Size of irrep 7 of <AB|CD> integrals:      1.094 (MW) /      8.753 (MB)
	Total:                                     8.027 (MW) /     64.216 (MB)

	Size of irrep 0 of <ab|cd> integrals:      1.173 (MW) /      9.383 (MB)
	Size of irrep 1 of <ab|cd> integrals:      0.976 (MW) /      7.809 (MB)
	Size of irrep 2 of <ab|cd> integrals:      0.976 (MW) /      7.809 (MB)
	Size of irrep 3 of <ab|cd> integrals:      0.955 (MW) /      7.636 (MB)
	Size of irrep 4 of <ab|cd> integrals:      0.817 (MW) /      6.538 (MB)
	Size of irrep 5 of <ab|cd> integrals:      1.119 (MW) /      8.955 (MB)
	Size of irrep 6 of <ab|cd> integrals:      1.119 (MW) /      8.955 (MB)
	Size of irrep 7 of <ab|cd> integrals:      1.149 (MW) /      9.193 (MB)
	Total:                                     8.285 (MW) /     66.279 (MB)

	Size of irrep 0 of <Ab|Cd> integrals:      5.171 (MW) /     41.369 (MB)
	Size of irrep 1 of <Ab|Cd> integrals:      3.830 (MW) /     30.639 (MB)
	Size of irrep 2 of <Ab|Cd> integrals:      3.830 (MW) /     30.639 (MB)
	Size of irrep 3 of <Ab|Cd> integrals:      3.787 (MW) /     30.295 (MB)
	Size of irrep 4 of <Ab|Cd> integrals:      3.226 (MW) /     25.805 (MB)
	Size of irrep 5 of <Ab|Cd> integrals:      4.427 (MW) /     35.415 (MB)
	Size of irrep 6 of <Ab|Cd> integrals:      4.427 (MW) /     35.415 (MB)
	Size of irrep 7 of <Ab|Cd> integrals:      4.486 (MW) /     35.887 (MB)
	Total:                                    33.183 (MW) /    265.463 (MB)

	Size of irrep 0 of <IA|BC> integrals:      0.187 (MW) /      1.497 (MB)
	Size of irrep 1 of <IA|BC> integrals:      0.112 (MW) /      0.899 (MB)
	Size of irrep 2 of <IA|BC> integrals:      0.112 (MW) /      0.899 (MB)
	Size of irrep 3 of <IA|BC> integrals:      0.112 (MW) /      0.899 (MB)
	Size of irrep 4 of <IA|BC> integrals:      0.078 (MW) /      0.628 (MB)
	Size of irrep 5 of <IA|BC> integrals:      0.144 (MW) /      1.155 (MB)
	Size of irrep 6 of <IA|BC> integrals:      0.144 (MW) /      1.155 (MB)
	Size of irrep 7 of <IA|BC> integrals:      0.144 (MW) /      1.155 (MB)
	Total:                                     1.036 (MW) /      8.287 (MB)

	Size of irrep 0 of <ia|bc> integrals:      0.147 (MW) /      1.175 (MB)
	Size of irrep 1 of <ia|bc> integrals:      0.079 (MW) /      0.632 (MB)
	Size of irrep 2 of <ia|bc> integrals:      0.079 (MW) /      0.632 (MB)
	Size of irrep 3 of <ia|bc> integrals:      0.098 (MW) /      0.782 (MB)
	Size of irrep 4 of <ia|bc> integrals:      0.058 (MW) /      0.463 (MB)
	Size of irrep 5 of <ia|bc> integrals:      0.121 (MW) /      0.965 (MB)
	Size of irrep 6 of <ia|bc> integrals:      0.121 (MW) /      0.965 (MB)
	Size of irrep 7 of <ia|bc> integrals:      0.094 (MW) /      0.755 (MB)
	Total:                                     0.796 (MW) /      6.368 (MB)

	Size of irrep 0 of <Ia|Bc> integrals:      0.191 (MW) /      1.528 (MB)
	Size of irrep 1 of <Ia|Bc> integrals:      0.115 (MW) /      0.924 (MB)
	Size of irrep 2 of <Ia|Bc> integrals:      0.115 (MW) /      0.924 (MB)
	Size of irrep 3 of <Ia|Bc> integrals:      0.113 (MW) /      0.903 (MB)
	Size of irrep 4 of <Ia|Bc> integrals:      0.079 (MW) /      0.632 (MB)
	Size of irrep 5 of <Ia|Bc> integrals:      0.145 (MW) /      1.161 (MB)
	Size of irrep 6 of <Ia|Bc> integrals:      0.145 (MW) /      1.161 (MB)
	Size of irrep 7 of <Ia|Bc> integrals:      0.148 (MW) /      1.186 (MB)
	Total:                                     1.052 (MW) /      8.420 (MB)

	Size of irrep 0 of <iA|bC> integrals:      0.146 (MW) /      1.164 (MB)
	Size of irrep 1 of <iA|bC> integrals:      0.076 (MW) /      0.611 (MB)
	Size of irrep 2 of <iA|bC> integrals:      0.076 (MW) /      0.611 (MB)
	Size of irrep 3 of <iA|bC> integrals:      0.097 (MW) /      0.778 (MB)
	Size of irrep 4 of <iA|bC> integrals:      0.057 (MW) /      0.460 (MB)
	Size of irrep 5 of <iA|bC> integrals:      0.120 (MW) /      0.959 (MB)
	Size of irrep 6 of <iA|bC> integrals:      0.120 (MW) /      0.959 (MB)
	Size of irrep 7 of <iA|bC> integrals:      0.091 (MW) /      0.729 (MB)
	Total:                                     0.784 (MW) /      6.271 (MB)

	Size of irrep 0 of tIjAb amplitudes:       0.007 (MW) /      0.055 (MB)
	Size of irrep 1 of tIjAb amplitudes:       0.002 (MW) /      0.016 (MB)
	Size of irrep 2 of tIjAb amplitudes:       0.002 (MW) /      0.016 (MB)
	Size of irrep 3 of tIjAb amplitudes:       0.004 (MW) /      0.031 (MB)
	Size of irrep 4 of tIjAb amplitudes:       0.000 (MW) /      0.000 (MB)
	Size of irrep 5 of tIjAb amplitudes:       0.004 (MW) /      0.034 (MB)
	Size of irrep 6 of tIjAb amplitudes:       0.004 (MW) /      0.034 (MB)
	Size of irrep 7 of tIjAb amplitudes:       0.002 (MW) /      0.017 (MB)
	Total:                                     0.025 (MW) /      0.201 (MB)

	Nuclear Rep. energy          =      0.00000000000000
	SCF energy                   =   -459.48975783299363
	One-electron energy          =    -24.78585992090585
	Two-electron (AA) energy     =      2.59582675898435
	Two-electron (BB) energy     =      1.26075613757398
	Two-electron (AB) energy     =      6.18674193422263
	Two-electron energy          =     10.04332483078095
	Reference energy             =   -459.48975783299272

*** tstop() called on cqc05 at Fri Aug 21 06:49:57 2020
Module time:
	user time   =       2.89 seconds =       0.05 minutes
	system time =       1.59 seconds =       0.03 minutes
	total time  =          5 seconds =       0.08 minutes
Total time:
	user time   =      11.46 seconds =       0.19 minutes
	system time =       1.86 seconds =       0.03 minutes
	total time  =         13 seconds =       0.22 minutes

*** tstart() called on cqc05
*** at Fri Aug 21 06:49:57 2020

            **************************
            *                        *
            *        CCENERGY        *
            *                        *
            **************************

    Nuclear Rep. energy (wfn)     =    0.000000000000000
    SCF energy          (wfn)     = -459.489757832993632
    Reference energy    (file100) = -459.489757832992723

    Input parameters:
    -----------------
    Wave function   =     CCSD
    Reference wfn   =     UHF
    Brueckner       =     No
    Memory (Mbytes) =     250000.0
    Maxiter         =     50
    R_Convergence   =     1.0e-07
    E_Convergence   =     1.0e-06
    Restart         =     Yes
    DIIS            =     Yes
    AO Basis        =     NONE
    ABCD            =     NEW
    Cache Level     =     2
    Cache Type      =     LRU
    Print Level     =     1
    Num. of threads =     4
    # Amps to Print =     10
    Print MP2 Amps? =     No
    Analyze T2 Amps =     No
    Print Pair Ener =     No
    Local CC        =     No
    SCS-MP2         =     False
    SCSN-MP2        =     False
    SCS-CCSD        =     False

MP2 correlation energy -0.1836769696284017
                Solving CC Amplitude Equations
                ------------------------------
  Iter             Energy              RMS        T1Diag      D1Diag    New D1Diag    D2Diag
  ----     ---------------------    ---------   ----------  ----------  ----------   --------
     0        -0.183676969628403    0.000e+00    0.000000    0.000000    0.000000    0.000000
     1        -0.198344703350021    3.878e-02    0.007005    0.000000    0.000000    0.000000
     2        -0.203476750619551    1.293e-02    0.009965    0.000000    0.000000    0.000000

      * MP2 total energy                      = -459.673434802621102
      * CCSD total energy                     = -459.693467807721902
*** Psi4 exiting successfully. Buy a developer a beer!
