                               Psi4 1.2a1.dev938

  ==> Input File <==

--------------------------------------------------------------------------
# Any line starting with the # character is a comment line
memory 250000 mb
molecule molecule{
0 2
Cl          0.0000000000        0.0000000000        0.0000000000
}

set {
  reference uhf
  basis aug-cc-pv(6+d)z
  scf_type OUT_OF_CORE
  freeze_core true
}

energy('ccsd')
--------------------------------------------------------------------------

    Molecular point group: d2h
    Geometry (in Angstrom), charge = 0, multiplicity = 2:

       Center              X                  Y                   Z               Mass
    ------------   -----------------  -----------------  -----------------  -----------------
          CL          0.000000000000     0.000000000000     0.000000000000    34.968852682000

  Charge       = 0
  Multiplicity = 2
  Basis Set: AUG-CC-PV(6+D)Z
    Blend: AUG-CC-PV(6+D)Z

    Orbital Energies (a.u.)
    -----------------------

    Alpha Occupied:

       1Ag  -104.889544     2Ag   -10.612204     1B1u   -8.098049
       1B3u   -8.073827     1B2u   -8.073827     3Ag    -1.136090
       2B1u   -0.581758     2B3u   -0.502517     2B2u   -0.502517

    Alpha Virtual:

       3B1u    0.070575     3B3u    0.075172     3B2u    0.075172
       4Ag     0.081143     5Ag     0.210169     1B3g    0.213050
       1B2g    0.213050     6Ag     0.222868     1B1g    0.222868
       4B1u    0.304245     4B3u    0.320358     4B2u    0.320358
       7Ag     0.459359     8Ag     0.517093     2B2g    0.526097
       2B3g    0.526097     5B1u    0.543875     5B2u    0.545392
       5B3u    0.545392     1Au     0.550006     6B1u    0.550006
       6B2u    0.558035     6B3u    0.558035     2B1g    0.558349
       9Ag     0.558349     7B1u    0.984249    10Ag     1.016737
       3B3g    1.017857     3B2g    1.017857     7B3u    1.019287
       7B2u    1.019287     3B1g    1.021220    11Ag     1.021220
       4B3g    1.026850     4B2g    1.026850     4B1g    1.034893
      12Ag     1.034893    13Ag     1.247363     5B2g    1.257434
       5B3g    1.257434     5B1g    1.291847    14Ag     1.291847
       8B1u    1.374220     8B2u    1.378160     8B3u    1.378160
       2Au     1.390163     9B1u    1.390163     9B2u    1.411098
       9B3u    1.411098    15Ag     1.638875    10B1u    2.401259
      10B2u    2.402548    10B3u    2.402548     3Au     2.406431
      11B1u    2.406431    11B2u    2.412966    11B3u    2.412966
       4Au     2.422256    12B1u    2.422256    16Ag     2.430543
       6B2g    2.433107     6B3g    2.433107    12B3u    2.434456
      12B2u    2.434456     6B1g    2.440810    17Ag     2.440810
       7B3g    2.453701     7B2g    2.453701    18Ag     2.471929
       7B1g    2.471929    13B1u    2.837634    13B3u    2.886438
      13B2u    2.886438    14B1u    2.900018    14B3u    2.908206
      14B2u    2.908206     5Au     2.922685    15B1u    2.922685
      19Ag     2.923666     8B2g    2.934185     8B3g    2.934185
      15B3u    2.954266    15B2u    2.954266    20Ag     2.968826
       8B1g    2.968826    21Ag     4.932902    22Ag     4.983655
       9B2g    4.987500     9B3g    4.987500    23Ag     4.999075
       9B1g    4.999075    10B3g    5.018484    10B2g    5.018484
      10B1g    5.045912    24Ag     5.045912    25Ag     5.169785
      11B2g    5.171163    11B3g    5.171163    11B1g    5.175310
      26Ag     5.175310    12B2g    5.182267    12B3g    5.182267
      27Ag     5.192113    12B1g    5.192113    13B2g    5.204982
      13B3g    5.204982    28Ag     5.221152    13B1g    5.221152
      16B1u    5.341801    16B3u    5.344071    16B2u    5.344071
      17B1u    5.350910     6Au     5.350910    17B2u    5.362398
      17B3u    5.362398     7Au     5.378683    18B1u    5.378683
      18B3u    5.399983    18B2u    5.399983    19B1u    5.986889
      19B3u    5.993372    19B2u    5.993372    20B1u    6.013022
       8Au     6.013022    20B3u    6.046553    20B2u    6.046553
      29Ag     6.332077    14B2g    6.343044    14B3g    6.343044
      30Ag     6.379062    14B1g    6.379062    21B1u    8.020016
      21B3u    8.067301    21B2u    8.067301    31Ag     9.852517
      15B2g    9.856425    15B3g    9.856425    32Ag     9.868191
      15B1g    9.868191    16B3g    9.887950    16B2g    9.887950
      16B1g    9.915930    33Ag     9.915930    34Ag    10.941398
      17B2g   10.943300    17B3g   10.943300    35Ag    10.949019
      17B1g   10.949019    18B2g   10.958604    18B3g   10.958604
      36Ag    10.972136    18B1g   10.972136    19B3g   10.989734
      19B2g   10.989734    37Ag    11.011557    19B1g   11.011557
      22B1u   11.200963    22B3u   11.203673    22B2u   11.203673
      23B1u   11.211828     9Au    11.211828    23B2u   11.225502
      23B3u   11.225502    10Au    11.244824    24B1u   11.244824
      24B3u   11.269980    24B2u   11.269980    25B1u   12.361214
      25B3u   12.366444    25B2u   12.366444    26B1u   12.382288
      11Au    12.382288    26B3u   12.409251    26B2u   12.409251
      38Ag    13.354719    20B2g   13.364954    20B3g   13.364954
      39Ag    13.395754    20B1g   13.395754    40Ag    14.855186
      27B1u   34.966062    27B3u   34.992469    27B2u   34.992469
      41Ag    39.114800    21B2g   39.120845    21B3g   39.120845
      42Ag    39.139236    21B1g   39.139236    43Ag   284.639676

    Beta Occupied:

       1Ag  -104.877620     2Ag   -10.601023     1B2u   -8.067717
       1B3u   -8.067717     1B1u   -8.047733     3Ag    -1.014406
       2B2u   -0.480927     2B3u   -0.480927

    Beta Virtual:

       2B1u   -0.040769     3B2u    0.075529     3B3u    0.075529
       3B1u    0.081618     4Ag     0.084327     5Ag     0.222529
       1B1g    0.222529     1B2g    0.222701     1B3g    0.222701
       6Ag     0.222960     4B2u    0.322644     4B3u    0.322644
       4B1u    0.340713     7Ag     0.471460     5B1u    0.548303
       5B3u    0.549301     5B2u    0.549301     1Au     0.552371
       6B1u    0.552371     6B2u    0.557587     6B3u    0.557587
       8Ag     0.560352     2B1g    0.560352     2B3g    0.581770
       2B2g    0.581770     9Ag     0.590316    10Ag     1.020038
       3B2g    1.020937     3B3g    1.020937     3B1g    1.023643
      11Ag     1.023643     7B2u    1.024916     7B3u    1.024916
       4B3g    1.028157     4B2g    1.028157    12Ag     1.034439
       4B1g    1.034439     7B1u    1.042285     5B1g    1.295092
      13Ag     1.295092     5B3g    1.300522     5B2g    1.300522
      14Ag     1.302854     8B1u    1.399307     8B3u    1.400588
       8B2u    1.400588     2Au     1.404444     9B1u    1.404444
       9B2u    1.410772     9B3u    1.410772    15Ag     1.659156
      10B1u    2.408012    10B3u    2.409027    10B2u    2.409027
       3Au     2.412078    11B1u    2.412078    11B2u    2.417188
      11B3u    2.417188     4Au     2.424392    12B1u    2.424392
      12B3u    2.433739    12B2u    2.433739    16Ag     2.446773
       6B2g    2.448316     6B3g    2.448316     6B1g    2.452938
      17Ag     2.452938     7B3g    2.460606     7B2g    2.460606
      18Ag     2.471269     7B1g    2.471269    13B1u    2.896747
      13B2u    2.896843    13B3u    2.896843    14B1u    2.939986
      14B2u    2.941390    14B3u    2.941390     5Au     2.946071
      15B1u    2.946071    19Ag     2.949740     8B3g    2.955022
       8B2g    2.955022    15B2u    2.955207    15B3u    2.955207
      20Ag     2.970816     8B1g    2.970816    21Ag     4.951557
      22Ag     5.011746     9B3g    5.013879     9B2g    5.013879
      23Ag     5.020282     9B1g    5.020282    10B3g    5.030964
      10B2g    5.030964    24Ag     5.045932    10B1g    5.045932
      25Ag     5.180239    11B2g    5.181326    11B3g    5.181326
      11B1g    5.184594    26Ag     5.184594    12B3g    5.190069
      12B2g    5.190069    27Ag     5.197791    12B1g    5.197791
      13B2g    5.207823    13B3g    5.207823    28Ag     5.220259
      13B1g    5.220259    16B1u    5.359632    16B2u    5.361198
      16B3u    5.361198    17B1u    5.365906     6Au     5.365906
      17B2u    5.373785    17B3u    5.373785     7Au     5.384880
      18B1u    5.384880    18B3u    5.399256    18B2u    5.399256
      19B1u    6.017376    19B2u    6.020712    19B3u    6.020712
      20B1u    6.030770     8Au     6.030770    20B2u    6.047681
      20B3u    6.047681    29Ag     6.352271    14B3g    6.359224
      14B2g    6.359224    30Ag     6.381054    14B1g    6.381054
      21B1u    8.062561    21B2u    8.073053    21B3u    8.073053
      31Ag     9.875234    15B3g    9.877759    15B2g    9.877759
      32Ag     9.885356    15B1g    9.885356    16B3g    9.898090
      16B2g    9.898090    16B1g    9.916072    33Ag     9.916072
      34Ag    10.958472    17B3g   10.959899    17B2g   10.959899
      35Ag    10.964189    17B1g   10.964189    18B2g   10.971369
      18B3g   10.971369    36Ag    10.981489    18B1g   10.981489
      19B2g   10.994617    19B3g   10.994617    37Ag    11.010842
      19B1g   11.010842    22B1u   11.221915    22B2u   11.223795
      22B3u   11.223795    23B1u   11.229449     9Au    11.229449
      23B2u   11.238918    23B3u   11.238918    10Au    11.252271
      24B1u   11.252271    24B3u   11.269606    24B2u   11.269606
      25B1u   12.373217    25B2u   12.377199    25B3u   12.377199
      26B1u   12.389236    11Au    12.389236    26B3u   12.409610
      26B2u   12.409610    38Ag    13.373183    20B3g   13.379392
      20B2g   13.379392    39Ag    13.397911    20B1g   13.397911
      40Ag    14.866830    27B3u   34.996743    27B2u   34.996743
      27B1u   34.996804    41Ag    39.135897    21B3g   39.137465
      21B2g   39.137465    42Ag    39.142341    21B1g   39.142341
      43Ag   284.644112

    Final Occupation by Irrep:
             Ag   B1g   B2g   B3g    Au   B1u   B2u   B3u
    DOCC [     3,    0,    0,    0,    0,    1,    2,    2 ]
    SOCC [     0,    0,    0,    0,    0,    1,    0,    0 ]

  Energy converged.

  @UHF Final Energy:  -459.48991644120434

   => Energetics <=

    Nuclear Repulsion Energy =              0.0000000000000000
    One-Electron Energy =                -634.8714319943651390
    Two-Electron Energy =                 175.3815155531607957
    PCM Polarization Energy =               0.0000000000000000
    Total Energy =                       -459.4899164412043433

    Alert: EFP and PCM quantities not currently incorporated into SCF psivars.
  UHF NO Occupations:
  HONO-2 :    2B3u 1.9996181
  HONO-1 :    3 Ag 1.9953491
  HONO-0 :    2B1u 1.0000000
  LUNO+0 :    4 Ag 0.0046509
  LUNO+1 :    3B3u 0.0003819
  LUNO+2 :    3B2u 0.0003819
  LUNO+3 :    3B1u 0.0000046

Properties will be evaluated at   0.000000,   0.000000,   0.000000 Bohr

Properties computed using the SCF density matrix

  Nuclear Dipole Moment: (a.u.)
     X:     0.0000      Y:     0.0000      Z:     0.0000

  Electronic Dipole Moment: (a.u.)
     X:     0.0000      Y:     0.0000      Z:     0.0000

  Dipole Moment: (a.u.)
     X:     0.0000      Y:     0.0000      Z:     0.0000     Total:     0.0000

  Dipole Moment: (Debye)
     X:     0.0000      Y:     0.0000      Z:     0.0000     Total:     0.0000

*** tstop() called on cqc05 at Wed Aug 26 09:22:43 2020
Module time:
	user time   =      46.03 seconds =       0.77 minutes
	system time =       0.94 seconds =       0.02 minutes
	total time  =         46 seconds =       0.77 minutes
Total time:
	user time   =      46.03 seconds =       0.77 minutes
	system time =       0.94 seconds =       0.02 minutes
	total time  =         46 seconds =       0.77 minutes

*** tstart() called on cqc05
*** at Wed Aug 26 09:22:43 2020

	Wfn Parameters:
	--------------------
	Wavefunction         = CCSD
	Number of irreps     = 8
	Number of MOs        = 198
	Number of active MOs = 193
	AO-Basis             = NONE
	Semicanonical        = false
	Reference            = UHF
	Print Level          = 1

	IRREP	# MOs	# FZDC	# DOCC	# SOCC	# VIRT	# FZVR
	-----	-----	------	------	------	------	------
	 Ag	   43	    2	    1	    0	    40	    0
	 B1g	   21	    0	    0	    0	    21	    0
	 B2g	   21	    0	    0	    0	    21	    0
	 B3g	   21	    0	    0	    0	    21	    0
	 Au	   11	    0	    0	    0	    11	    0
	 B1u	   27	    1	    0	    1	    25	    0
	 B2u	   27	    1	    1	    0	    25	    0
	 B3u	   27	    1	    1	    0	    25	    0
	Transforming integrals...
	IWL integrals will be deleted.
	(OO|OO)...
	Presorting SO-basis two-electron integrals.
	Sorting File: SO Ints (nn|nn) nbuckets = 1
	Transforming the one-electron integrals and constructing Fock matrices
	Starting AA/AB first half-transformation.
	Sorting AA/AB half-transformed integrals.
	Starting BB first half-transformation.
	Sorting BB half-transformed integrals.
	First half integral transformation complete.
	Starting AA second half-transformation.
	Starting AB second half-transformation.
	Starting BB second half-transformation.
	Two-electron integral transformation complete.
	(OO|OV)...
	Starting AA second half-transformation.
	Starting AB second half-transformation.
	Starting BB second half-transformation.
	Two-electron integral transformation complete.
	(OO|VV)...
	Starting AA second half-transformation.
	Starting AB second half-transformation.
	Starting BB second half-transformation.
	Two-electron integral transformation complete.
	(OV|OO)...
	Starting AA/AB first half-transformation.
	Sorting AA/AB half-transformed integrals.
	Starting BB first half-transformation.
	Sorting BB half-transformed integrals.
	First half integral transformation complete.
	Starting AA second half-transformation.
	Starting AB second half-transformation.
	Starting BB second half-transformation.
	Two-electron integral transformation complete.
	(OV|OV)...
	Starting AA second half-transformation.
	Starting AB second half-transformation.
	Starting BB second half-transformation.
	Two-electron integral transformation complete.
	(OV|VV)...
	Starting AA second half-transformation.
	Starting AB second half-transformation.
	Starting BB second half-transformation.
	Two-electron integral transformation complete.
	(VV|OO)...
	Starting AA/AB first half-transformation.
	Sorting AA/AB half-transformed integrals.
	Starting BB first half-transformation.
	Sorting BB half-transformed integrals.
	First half integral transformation complete.
	Starting AA second half-transformation.
	Starting AB second half-transformation.
	Starting BB second half-transformation.
	Two-electron integral transformation complete.
	(VV|OV)...
	Starting AA second half-transformation.
	Starting AB second half-transformation.
	Starting BB second half-transformation.
	Two-electron integral transformation complete.
	(VV|VV)...
	Starting AA second half-transformation.
	Starting AB second half-transformation.
	Starting BB second half-transformation.
	Two-electron integral transformation complete.
	Frozen core energy     =   -444.74728711145383

	Size of irrep 0 of <AB|CD> integrals:      5.593 (MW) /     44.746 (MB)
	Size of irrep 1 of <AB|CD> integrals:      4.757 (MW) /     38.054 (MB)
	Size of irrep 2 of <AB|CD> integrals:      4.757 (MW) /     38.054 (MB)
	Size of irrep 3 of <AB|CD> integrals:      4.757 (MW) /     38.054 (MB)
	Size of irrep 4 of <AB|CD> integrals:      4.060 (MW) /     32.482 (MB)
	Size of irrep 5 of <AB|CD> integrals:      5.203 (MW) /     41.624 (MB)
	Size of irrep 6 of <AB|CD> integrals:      5.203 (MW) /     41.624 (MB)
	Size of irrep 7 of <AB|CD> integrals:      5.203 (MW) /     41.624 (MB)
	Total:                                    39.533 (MW) /    316.261 (MB)

	Size of irrep 0 of <ab|cd> integrals:      5.712 (MW) /     45.697 (MB)
	Size of irrep 1 of <ab|cd> integrals:      4.805 (MW) /     38.439 (MB)
	Size of irrep 2 of <ab|cd> integrals:      4.866 (MW) /     38.931 (MB)
	Size of irrep 3 of <ab|cd> integrals:      4.866 (MW) /     38.931 (MB)
	Size of irrep 4 of <ab|cd> integrals:      4.145 (MW) /     33.162 (MB)
	Size of irrep 5 of <ab|cd> integrals:      5.387 (MW) /     43.096 (MB)
	Size of irrep 6 of <ab|cd> integrals:      5.299 (MW) /     42.394 (MB)
	Size of irrep 7 of <ab|cd> integrals:      5.299 (MW) /     42.394 (MB)
	Total:                                    40.381 (MW) /    323.045 (MB)

	Size of irrep 0 of <Ab|Cd> integrals:     24.443 (MW) /    195.545 (MB)
	Size of irrep 1 of <Ab|Cd> integrals:     19.123 (MW) /    152.985 (MB)
	Size of irrep 2 of <Ab|Cd> integrals:     19.246 (MW) /    153.966 (MB)
	Size of irrep 3 of <Ab|Cd> integrals:     19.246 (MW) /    153.966 (MB)
	Size of irrep 4 of <Ab|Cd> integrals:     16.411 (MW) /    131.285 (MB)
	Size of irrep 5 of <Ab|Cd> integrals:     21.178 (MW) /    169.427 (MB)
	Size of irrep 6 of <Ab|Cd> integrals:     21.004 (MW) /    168.031 (MB)
	Size of irrep 7 of <Ab|Cd> integrals:     21.004 (MW) /    168.031 (MB)
	Total:                                   161.655 (MW) /   1293.237 (MB)

	Size of irrep 0 of <IA|BC> integrals:      0.566 (MW) /      4.525 (MB)
	Size of irrep 1 of <IA|BC> integrals:      0.358 (MW) /      2.861 (MB)
	Size of irrep 2 of <IA|BC> integrals:      0.358 (MW) /      2.861 (MB)
	Size of irrep 3 of <IA|BC> integrals:      0.358 (MW) /      2.861 (MB)
	Size of irrep 4 of <IA|BC> integrals:      0.298 (MW) /      2.386 (MB)
	Size of irrep 5 of <IA|BC> integrals:      0.488 (MW) /      3.905 (MB)
	Size of irrep 6 of <IA|BC> integrals:      0.488 (MW) /      3.905 (MB)
	Size of irrep 7 of <IA|BC> integrals:      0.488 (MW) /      3.905 (MB)
	Total:                                     3.401 (MW) /     27.211 (MB)

	Size of irrep 0 of <ia|bc> integrals:      0.447 (MW) /      3.578 (MB)
	Size of irrep 1 of <ia|bc> integrals:      0.311 (MW) /      2.490 (MB)
	Size of irrep 2 of <ia|bc> integrals:      0.256 (MW) /      2.047 (MB)
	Size of irrep 3 of <ia|bc> integrals:      0.256 (MW) /      2.047 (MB)
	Size of irrep 4 of <ia|bc> integrals:      0.216 (MW) /      1.727 (MB)
	Size of irrep 5 of <ia|bc> integrals:      0.316 (MW) /      2.525 (MB)
	Size of irrep 6 of <ia|bc> integrals:      0.396 (MW) /      3.168 (MB)
	Size of irrep 7 of <ia|bc> integrals:      0.396 (MW) /      3.168 (MB)
	Total:                                     2.594 (MW) /     20.750 (MB)

	Size of irrep 0 of <Ia|Bc> integrals:      0.574 (MW) /      4.588 (MB)
	Size of irrep 1 of <Ia|Bc> integrals:      0.359 (MW) /      2.869 (MB)
	Size of irrep 2 of <Ia|Bc> integrals:      0.364 (MW) /      2.913 (MB)
	Size of irrep 3 of <Ia|Bc> integrals:      0.364 (MW) /      2.913 (MB)
	Size of irrep 4 of <Ia|Bc> integrals:      0.300 (MW) /      2.398 (MB)
	Size of irrep 5 of <Ia|Bc> integrals:      0.497 (MW) /      3.976 (MB)
	Size of irrep 6 of <Ia|Bc> integrals:      0.490 (MW) /      3.923 (MB)
	Size of irrep 7 of <Ia|Bc> integrals:      0.490 (MW) /      3.923 (MB)
	Total:                                     3.438 (MW) /     27.503 (MB)

	Size of irrep 0 of <iA|bC> integrals:      0.445 (MW) /      3.560 (MB)
	Size of irrep 1 of <iA|bC> integrals:      0.310 (MW) /      2.484 (MB)
	Size of irrep 2 of <iA|bC> integrals:      0.250 (MW) /      2.000 (MB)
	Size of irrep 3 of <iA|bC> integrals:      0.250 (MW) /      2.000 (MB)
	Size of irrep 4 of <iA|bC> integrals:      0.215 (MW) /      1.718 (MB)
	Size of irrep 5 of <iA|bC> integrals:      0.308 (MW) /      2.467 (MB)
	Size of irrep 6 of <iA|bC> integrals:      0.394 (MW) /      3.153 (MB)
	Size of irrep 7 of <iA|bC> integrals:      0.394 (MW) /      3.153 (MB)
	Total:                                     2.567 (MW) /     20.535 (MB)

	Size of irrep 0 of tIjAb amplitudes:       0.015 (MW) /      0.119 (MB)
	Size of irrep 1 of tIjAb amplitudes:       0.009 (MW) /      0.070 (MB)
	Size of irrep 2 of tIjAb amplitudes:       0.004 (MW) /      0.035 (MB)
	Size of irrep 3 of tIjAb amplitudes:       0.004 (MW) /      0.035 (MB)
	Size of irrep 4 of tIjAb amplitudes:       0.000 (MW) /      0.000 (MB)
	Size of irrep 5 of tIjAb amplitudes:       0.005 (MW) /      0.037 (MB)
	Size of irrep 6 of tIjAb amplitudes:       0.009 (MW) /      0.073 (MB)
	Size of irrep 7 of tIjAb amplitudes:       0.009 (MW) /      0.073 (MB)
	Total:                                     0.055 (MW) /      0.442 (MB)

	Nuclear Rep. energy          =      0.00000000000000
	SCF energy                   =   -459.48991644120434
	One-electron energy          =    -24.78611817520834
	Two-electron (AA) energy     =      2.59586797540005
	Two-electron (BB) energy     =      1.26077191552584
	Two-electron (AB) energy     =      6.18684895453230
	Two-electron energy          =     10.04348884545819
	Reference energy             =   -459.48991644120400

*** tstop() called on cqc05 at Wed Aug 26 09:23:05 2020
Module time:
	user time   =      13.76 seconds =       0.23 minutes
	system time =       7.46 seconds =       0.12 minutes
	total time  =         22 seconds =       0.37 minutes
Total time:
	user time   =      59.79 seconds =       1.00 minutes
	system time =       8.40 seconds =       0.14 minutes
	total time  =         68 seconds =       1.13 minutes

*** tstart() called on cqc05
*** at Wed Aug 26 09:23:05 2020

            **************************
            *                        *

      * MP2 total energy                      = -459.677254693122450
      * CCSD total energy                     = -459.695869785728121
*** Psi4 exiting successfully. Buy a developer a beer!
