                               Psi4 1.2a1.dev938

  ==> Input File <==

--------------------------------------------------------------------------
# Any line starting with the # character is a comment line
memory 250000 mb
molecule molecule{
0 2
Cl          0.0000000000        0.0000000000        0.0000000000
}

set {
  reference uhf
  basis aug-cc-pv(t+d)z
  scf_type OUT_OF_CORE
  freeze_core true
}

energy('ccsd')
--------------------------------------------------------------------------

    Molecular point group: d2h
    Geometry (in Angstrom), charge = 0, multiplicity = 2:

       Center              X                  Y                   Z               Mass
    ------------   -----------------  -----------------  -----------------  -----------------
          CL          0.000000000000     0.000000000000     0.000000000000    34.968852682000

  Charge       = 0
  Multiplicity = 2
  Basis Set: AUG-CC-PV(T+D)Z
    Blend: AUG-CC-PV(T+D)Z

    Orbital Energies (a.u.)
    -----------------------

    Alpha Occupied:

       1Ag  -104.890652     2Ag   -10.613159     1B1u   -8.098401
       1B2u   -8.074029     1B3u   -8.074029     3Ag    -1.136482
       2B1u   -0.581952     2B3u   -0.502757     2B2u   -0.502757

    Alpha Virtual:

       3B1u    0.106257     3B2u    0.114355     3B3u    0.114355
       4Ag     0.122282     5Ag     0.306228     1B2g    0.312177
       1B3g    0.312177     6Ag     0.332807     1B1g    0.332807
       4B1u    0.585711     4B3u    0.618582     4B2u    0.618582
       7Ag     0.800090     2B2g    0.811480     2B3g    0.811480
       8Ag     0.851301     2B1g    0.851301     9Ag     0.888990
       5B1u    1.141573     5B2u    1.145699     5B3u    1.145699
       1Au     1.158253     6B1u    1.158253     6B2u    1.180038
       6B3u    1.180038    10Ag     2.247125     3B3g    2.258488
       3B2g    2.258488     3B1g    2.295686    11Ag     2.295686
       7B1u    2.588068     7B2u    2.640250     7B3u    2.640250
       8B1u    2.977440     8B3u    2.984293     8B2u    2.984293
       2Au     3.005145     9B1u    3.005145     9B3u    3.041100
       9B2u    3.041100    12Ag     5.002680    13Ag     8.722492
       4B3g    8.731117     4B2g    8.731117     4B1g    8.757635
      14Ag     8.757635

    Beta Occupied:

       1Ag  -104.879542     2Ag   -10.601884     1B2u   -8.068097
       1B3u   -8.068097     1B1u   -8.049665     3Ag    -1.014928
       2B3u   -0.481098     2B2u   -0.481098

    Beta Virtual:

       2B1u   -0.041355     3B2u    0.115187     3B3u    0.115187
       3B1u    0.127214     4Ag     0.128043     1B1g    0.332731
       5Ag     0.332731     1B3g    0.341638     1B2g    0.341638
       6Ag     0.345174     4B3u    0.624347     4B2u    0.624347
       4B1u    0.653055     7Ag     0.855130     2B1g    0.855130
       2B2g    0.877018     2B3g    0.877018     8Ag     0.884971
       9Ag     0.912470     5B1u    1.167431     5B2u    1.168791
       5B3u    1.168791     1Au     1.172826     6B1u    1.172826
       6B2u    1.179327     6B3u    1.179327    10Ag     2.284861
       3B3g    2.288345     3B2g    2.288345     3B1g    2.298510
      11Ag     2.298510     7B2u    2.648744     7B3u    2.648744
       7B1u    2.663905     8B1u    3.027313     8B3u    3.029039
       8B2u    3.029039     2Au     3.034118     9B1u    3.034118
       9B3u    3.042278     9B2u    3.042278    12Ag     5.023006
      13Ag     8.739483     4B3g    8.744452     4B2g    8.744452
       4B1g    8.759436    14Ag     8.759436

    Final Occupation by Irrep:
             Ag   B1g   B2g   B3g    Au   B1u   B2u   B3u
    DOCC [     3,    0,    0,    0,    0,    1,    2,    2 ]
    SOCC [     0,    0,    0,    0,    0,    1,    0,    0 ]

  Energy converged.

  @UHF Final Energy:  -459.48608912099860

   => Energetics <=

    Nuclear Repulsion Energy =              0.0000000000000000
    One-Electron Energy =                -634.8535511445669499
    Two-Electron Energy =                 175.3674620235683790
    Total Energy =                       -459.4860891209985994

  UHF NO Occupations:
  HONO-2 :    2B2u 1.9996440
  HONO-1 :    3 Ag 1.9954137
  HONO-0 :    2B1u 1.0000000
  LUNO+0 :    4 Ag 0.0045863
  LUNO+1 :    3B3u 0.0003560
  LUNO+2 :    3B2u 0.0003560
  LUNO+3 :    3B1u 0.0000026

Properties will be evaluated at   0.000000,   0.000000,   0.000000 Bohr

Properties computed using the SCF density matrix

  Nuclear Dipole Moment: (a.u.)
     X:     0.0000      Y:     0.0000      Z:     0.0000

  Electronic Dipole Moment: (a.u.)
     X:     0.0000      Y:     0.0000      Z:     0.0000

  Dipole Moment: (a.u.)
     X:     0.0000      Y:     0.0000      Z:     0.0000     Total:     0.0000

  Dipole Moment: (Debye)
     X:     0.0000      Y:     0.0000      Z:     0.0000     Total:     0.0000

*** tstop() called on cqc05 at Thu Aug 20 20:11:10 2020
Module time:
	user time   =       0.56 seconds =       0.01 minutes
	system time =       0.03 seconds =       0.00 minutes
	total time  =          0 seconds =       0.00 minutes
Total time:
	user time   =       0.56 seconds =       0.01 minutes
	system time =       0.03 seconds =       0.00 minutes
	total time  =          0 seconds =       0.00 minutes

*** tstart() called on cqc05
*** at Thu Aug 20 20:11:10 2020

	Wfn Parameters:
	--------------------
	Wavefunction         = CCSD
	Number of irreps     = 8
	Number of MOs        = 55
	Number of active MOs = 50
	AO-Basis             = NONE
	Semicanonical        = false
	Reference            = UHF
	Print Level          = 1

	IRREP	# MOs	# FZDC	# DOCC	# SOCC	# VIRT	# FZVR
	-----	-----	------	------	------	------	------
	 Ag	   14	    2	    1	    0	    11	    0
	 B1g	   4	    0	    0	    0	    4	    0
	 B2g	   4	    0	    0	    0	    4	    0
	 B3g	   4	    0	    0	    0	    4	    0
	 Au	   2	    0	    0	    0	    2	    0
	 B1u	   9	    1	    0	    1	    7	    0
	 B2u	   9	    1	    1	    0	    7	    0
	 B3u	   9	    1	    1	    0	    7	    0
	Transforming integrals...
	IWL integrals will be deleted.
	(OO|OO)...
	Presorting SO-basis two-electron integrals.
	Sorting File: SO Ints (nn|nn) nbuckets = 1
	Transforming the one-electron integrals and constructing Fock matrices
	Starting AA/AB first half-transformation.
	Sorting AA/AB half-transformed integrals.
	Starting BB first half-transformation.
	Sorting BB half-transformed integrals.
	First half integral transformation complete.
	Starting AA second half-transformation.
	Starting AB second half-transformation.
	Starting BB second half-transformation.
	Two-electron integral transformation complete.
	(OO|OV)...
	Starting AA second half-transformation.
	Starting AB second half-transformation.
	Starting BB second half-transformation.
	Two-electron integral transformation complete.
	(OO|VV)...
	Starting AA second half-transformation.
	Starting AB second half-transformation.
	Starting BB second half-transformation.
	Two-electron integral transformation complete.
	(OV|OO)...
	Starting AA/AB first half-transformation.
	Sorting AA/AB half-transformed integrals.
	Starting BB first half-transformation.
	Sorting BB half-transformed integrals.
	First half integral transformation complete.
	Starting AA second half-transformation.
	Starting AB second half-transformation.
	Starting BB second half-transformation.
	Two-electron integral transformation complete.
	(OV|OV)...
	Starting AA second half-transformation.
	Starting AB second half-transformation.
	Starting BB second half-transformation.
	Two-electron integral transformation complete.
	(OV|VV)...
	Starting AA second half-transformation.
	Starting AB second half-transformation.
	Starting BB second half-transformation.
	Two-electron integral transformation complete.
	(VV|OO)...
	Starting AA/AB first half-transformation.
	Sorting AA/AB half-transformed integrals.
	Starting BB first half-transformation.
	Sorting BB half-transformed integrals.
	First half integral transformation complete.
	Starting AA second half-transformation.
	Starting AB second half-transformation.
	Starting BB second half-transformation.
	Two-electron integral transformation complete.
	(VV|OV)...
	Starting AA second half-transformation.
	Starting AB second half-transformation.
	Starting BB second half-transformation.
	Two-electron integral transformation complete.
	(VV|VV)...
	Starting AA second half-transformation.
	Starting AB second half-transformation.
	Starting BB second half-transformation.
	Two-electron integral transformation complete.
	Frozen core energy     =   -444.74440681565102

	Size of irrep 0 of <AB|CD> integrals:      0.019 (MW) /      0.150 (MB)
	Size of irrep 1 of <AB|CD> integrals:      0.015 (MW) /      0.121 (MB)
	Size of irrep 2 of <AB|CD> integrals:      0.015 (MW) /      0.121 (MB)
	Size of irrep 3 of <AB|CD> integrals:      0.015 (MW) /      0.121 (MB)
	Size of irrep 4 of <AB|CD> integrals:      0.011 (MW) /      0.090 (MB)
	Size of irrep 5 of <AB|CD> integrals:      0.020 (MW) /      0.159 (MB)
	Size of irrep 6 of <AB|CD> integrals:      0.020 (MW) /      0.159 (MB)
	Size of irrep 7 of <AB|CD> integrals:      0.020 (MW) /      0.159 (MB)
	Total:                                     0.135 (MW) /      1.080 (MB)

	Size of irrep 0 of <ab|cd> integrals:      0.021 (MW) /      0.166 (MB)
	Size of irrep 1 of <ab|cd> integrals:      0.016 (MW) /      0.125 (MB)
	Size of irrep 2 of <ab|cd> integrals:      0.017 (MW) /      0.135 (MB)
	Size of irrep 3 of <ab|cd> integrals:      0.017 (MW) /      0.135 (MB)
	Size of irrep 4 of <ab|cd> integrals:      0.012 (MW) /      0.097 (MB)
	Size of irrep 5 of <ab|cd> integrals:      0.023 (MW) /      0.185 (MB)
	Size of irrep 6 of <ab|cd> integrals:      0.021 (MW) /      0.168 (MB)
	Size of irrep 7 of <ab|cd> integrals:      0.021 (MW) /      0.168 (MB)
	Total:                                     0.147 (MW) /      1.179 (MB)

	Size of irrep 0 of <Ab|Cd> integrals:      0.107 (MW) /      0.855 (MB)
	Size of irrep 1 of <Ab|Cd> integrals:      0.062 (MW) /      0.492 (MB)
	Size of irrep 2 of <Ab|Cd> integrals:      0.064 (MW) /      0.512 (MB)
	Size of irrep 3 of <Ab|Cd> integrals:      0.064 (MW) /      0.512 (MB)
	Size of irrep 4 of <Ab|Cd> integrals:      0.047 (MW) /      0.373 (MB)
	Size of irrep 5 of <Ab|Cd> integrals:      0.086 (MW) /      0.687 (MB)
	Size of irrep 6 of <Ab|Cd> integrals:      0.082 (MW) /      0.654 (MB)
	Size of irrep 7 of <Ab|Cd> integrals:      0.082 (MW) /      0.654 (MB)
	Total:                                     0.593 (MW) /      4.740 (MB)

	Size of irrep 0 of <IA|BC> integrals:      0.010 (MW) /      0.082 (MB)
	Size of irrep 1 of <IA|BC> integrals:      0.005 (MW) /      0.039 (MB)
	Size of irrep 2 of <IA|BC> integrals:      0.005 (MW) /      0.039 (MB)
	Size of irrep 3 of <IA|BC> integrals:      0.005 (MW) /      0.039 (MB)
	Size of irrep 4 of <IA|BC> integrals:      0.003 (MW) /      0.024 (MB)
	Size of irrep 5 of <IA|BC> integrals:      0.007 (MW) /      0.059 (MB)
	Size of irrep 6 of <IA|BC> integrals:      0.007 (MW) /      0.059 (MB)
	Size of irrep 7 of <IA|BC> integrals:      0.007 (MW) /      0.059 (MB)
	Total:                                     0.050 (MW) /      0.400 (MB)

	Size of irrep 0 of <ia|bc> integrals:      0.008 (MW) /      0.067 (MB)
	Size of irrep 1 of <ia|bc> integrals:      0.004 (MW) /      0.036 (MB)
	Size of irrep 2 of <ia|bc> integrals:      0.004 (MW) /      0.029 (MB)
	Size of irrep 3 of <ia|bc> integrals:      0.004 (MW) /      0.029 (MB)
	Size of irrep 4 of <ia|bc> integrals:      0.002 (MW) /      0.018 (MB)
	Size of irrep 5 of <ia|bc> integrals:      0.005 (MW) /      0.039 (MB)
	Size of irrep 6 of <ia|bc> integrals:      0.006 (MW) /      0.051 (MB)
	Size of irrep 7 of <ia|bc> integrals:      0.006 (MW) /      0.051 (MB)
	Total:                                     0.040 (MW) /      0.320 (MB)

	Size of irrep 0 of <Ia|Bc> integrals:      0.011 (MW) /      0.086 (MB)
	Size of irrep 1 of <Ia|Bc> integrals:      0.005 (MW) /      0.040 (MB)
	Size of irrep 2 of <Ia|Bc> integrals:      0.005 (MW) /      0.043 (MB)
	Size of irrep 3 of <Ia|Bc> integrals:      0.005 (MW) /      0.043 (MB)
	Size of irrep 4 of <Ia|Bc> integrals:      0.003 (MW) /      0.024 (MB)
	Size of irrep 5 of <Ia|Bc> integrals:      0.008 (MW) /      0.063 (MB)
	Size of irrep 6 of <Ia|Bc> integrals:      0.007 (MW) /      0.059 (MB)
	Size of irrep 7 of <Ia|Bc> integrals:      0.007 (MW) /      0.059 (MB)
	Total:                                     0.052 (MW) /      0.417 (MB)

	Size of irrep 0 of <iA|bC> integrals:      0.008 (MW) /      0.065 (MB)
	Size of irrep 1 of <iA|bC> integrals:      0.004 (MW) /      0.036 (MB)
	Size of irrep 2 of <iA|bC> integrals:      0.003 (MW) /      0.026 (MB)
	Size of irrep 3 of <iA|bC> integrals:      0.003 (MW) /      0.026 (MB)
	Size of irrep 4 of <iA|bC> integrals:      0.002 (MW) /      0.017 (MB)
	Size of irrep 5 of <iA|bC> integrals:      0.004 (MW) /      0.035 (MB)
	Size of irrep 6 of <iA|bC> integrals:      0.006 (MW) /      0.050 (MB)
	Size of irrep 7 of <iA|bC> integrals:      0.006 (MW) /      0.050 (MB)
	Total:                                     0.038 (MW) /      0.307 (MB)

	Size of irrep 0 of tIjAb amplitudes:       0.001 (MW) /      0.008 (MB)
	Size of irrep 1 of tIjAb amplitudes:       0.000 (MW) /      0.004 (MB)
	Size of irrep 2 of tIjAb amplitudes:       0.000 (MW) /      0.002 (MB)
	Size of irrep 3 of tIjAb amplitudes:       0.000 (MW) /      0.002 (MB)
	Size of irrep 4 of tIjAb amplitudes:       0.000 (MW) /      0.000 (MB)
	Size of irrep 5 of tIjAb amplitudes:       0.000 (MW) /      0.002 (MB)
	Size of irrep 6 of tIjAb amplitudes:       0.001 (MW) /      0.005 (MB)
	Size of irrep 7 of tIjAb amplitudes:       0.001 (MW) /      0.005 (MB)
	Total:                                     0.003 (MW) /      0.027 (MB)

	Nuclear Rep. energy          =      0.00000000000000
	SCF energy                   =   -459.48608912099860
	One-electron energy          =    -24.78229250112840
	Two-electron (AA) energy     =      2.59507314308679
	Two-electron (BB) energy     =      1.26042711037427
	Two-electron (AB) energy     =      6.18510994232005
	Two-electron energy          =     10.04061019578110
	Reference energy             =   -459.48608912099832

*** tstop() called on cqc05 at Thu Aug 20 20:11:11 2020
Module time:
	user time   =       0.13 seconds =       0.00 minutes
	system time =       0.09 seconds =       0.00 minutes
	total time  =          1 seconds =       0.02 minutes
Total time:
	user time   =       0.69 seconds =       0.01 minutes
	system time =       0.12 seconds =       0.00 minutes
	total time  =          1 seconds =       0.02 minutes

*** tstart() called on cqc05
*** at Thu Aug 20 20:11:11 2020

            **************************
            *                        *
            *        CCENERGY        *
            *                        *
            **************************

    Nuclear Rep. energy (wfn)     =    0.000000000000000
    SCF energy          (wfn)     = -459.486089120998599
    Reference energy    (file100) = -459.486089120998315

    Input parameters:
    -----------------
    Wave function   =     CCSD
    Reference wfn   =     UHF
    Brueckner       =     No
    Memory (Mbytes) =     250000.0
    Maxiter         =     50
    R_Convergence   =     1.0e-07
    E_Convergence   =     1.0e-06
    Restart         =     Yes
    DIIS            =     Yes
    AO Basis        =     NONE
    ABCD            =     NEW
    Cache Level     =     2
    Cache Type      =     LRU
    Print Level     =     1
    Num. of threads =     4
    # Amps to Print =     10
    Print MP2 Amps? =     No
    Analyze T2 Amps =     No
    Print Pair Ener =     No
    Local CC        =     No
    SCS-MP2         =     False
    SCSN-MP2        =     False
    SCS-CCSD        =     False

MP2 correlation energy -0.1618949448959676
                Solving CC Amplitude Equations
                ------------------------------
  Iter             Energy              RMS        T1Diag      D1Diag    New D1Diag    D2Diag
  ----     ---------------------    ---------   ----------  ----------  ----------   --------
     0        -0.161894944895968    0.000e+00    0.000000    0.000000    0.000000    0.000000
     1        -0.179866226000297    4.017e-02    0.006206    0.000000    0.000000    0.000000
     2        -0.185094112574008    1.325e-02    0.009322    0.000000    0.000000    0.000000
     3        -0.185372503059449    3.105e-03    0.010262    0.000000    0.000000    0.000000
     4        -0.185367946332337    6.536e-04    0.010405    0.000000    0.000000    0.000000
     5        -0.185362158031649    2.037e-04    0.010425    0.000000    0.000000    0.000000
     6        -0.185362976303861    6.665e-05    0.010425    0.000000    0.000000    0.000000
     7        -0.185363501370147    1.981e-05    0.010424    0.000000    0.000000    0.000000
     8        -0.185363340546684    6.135e-06    0.010423    0.000000    0.000000    0.000000
     9        -0.185363331536779    1.460e-06    0.010423    0.000000    0.000000    0.000000
    10        -0.185363339986542    3.533e-07    0.010423    0.000000    0.000000    0.000000
    11        -0.185363335416301    8.103e-08    0.010423    0.000000    0.000000    0.000000
    11        -0.185363335416301    8.103e-08    0.010423    0.000000    0.000000    0.000000

    Iterations converged.

    CCSD corr. energy   =   -0.185363335416301
    PPL corr. energy    =    0.046093364105779
    OS PPL corr. energy =    0.038106049704844
    SS PPL corr. energy =    0.007987314400935
    Largest TIA Amplitudes:
              1  25         0.0048486726
              0   1         0.0046951873
              0   3        -0.0042941248
              0   5         0.0032196620
              2  33         0.0027043707
              3  40         0.0027043707
              1  26        -0.0024494167
              2  36        -0.0020765544
              3  43        -0.0020765544
              1  29        -0.0016824271

    Largest Tia Amplitudes:
              0   4         0.0166115019
              0   2         0.0162569845
              0   5        -0.0067669803
              1  35         0.0034354641
              2  42         0.0034354641
              0   6         0.0028865810
              1  37        -0.0022132853
              2  44        -0.0022132853
              0   0         0.0021964370
              1  38        -0.0019884971

    Largest TIJAB Amplitudes:
      3   2  12   4         0.0297954186
      3   2  11   2         0.0270524453
      3   2  11   4         0.0247892008
      3   2  12   2         0.0247892008
      3   1  16   3        -0.0235403817
      2   1  20   3        -0.0235403817
      3   1  15   1         0.0231039408
      2   1  19   1         0.0231039408
      3   1  16   1         0.0203116569
      2   1  20   1         0.0203116569

      * MP2 total energy                      = -459.647984065894263
      * CCSD total energy                     = -459.671452456414613
*** Psi4 exiting successfully. Buy a developer a beer!
