                               Psi4 1.4a3.dev88

  ==> Input File <==

--------------------------------------------------------------------------
# Any line starting with the # character is a comment line
memory 250000 mb
molecule molecule{
0 3
C          0.0000000000        0.0000000000        0.0617255311
H          0.0000000000        0.9845500245       -0.3677725628
H          0.0000000000       -0.9845500245       -0.3677725628
}

set {
  reference uhf
  basis aug-cc-pV(t+d)Z
  scf_type OUT_OF_CORE
  freeze_core true
}

energy('ccsd(t)')
--------------------------------------------------------------------------

    Molecular point group: c2v

    Geometry (in Angstrom), charge = 0, multiplicity = 3:

       Center              X                  Y                   Z               Mass
    ------------   -----------------  -----------------  -----------------  -----------------
         C            0.000000000000     0.000000000000     0.061767942027    12.000000000000
         H           -0.000000000000     0.984550024500    -0.367730151873     1.007825032230
         H            0.000000000000    -0.984550024500    -0.367730151873     1.007825032230

  Charge       = 0
  Multiplicity = 3
  Basis Set: AUG-CC-PV(T+D)Z
    Blend: AUG-CC-PV(T+D)Z

    Orbital Energies [Eh]
    ---------------------

    Alpha Occupied:

       1A1   -11.265724     2A1    -0.950657     1B2    -0.619069
       3A1    -0.453127     1B1    -0.409416

    Alpha Virtual:

       4A1     0.030524     2B2     0.045207     5A1     0.088668
       2B1     0.093887     3B2     0.136958     6A1     0.140085
       7A1     0.203738     4B2     0.227337     1A2     0.259933
       8A1     0.283572     3B1     0.288345     9A1     0.334777
       5B2     0.335957     4B1     0.341640     6B2     0.371374
      10A1     0.395570    11A1     0.411202     2A2     0.416088
       7B2     0.433760    12A1     0.545849     5B1     0.579402
       8B2     0.699350    13A1     0.738264     9B2     0.799668
       3A2     0.845145     6B1     0.875284    14A1     0.880615
      10B2     0.917181    15A1     0.943339     7B1     0.958970
      16A1     0.980803    11B2     0.993457     4A2     1.022722
      12B2     1.031314     8B1     1.071317    17A1     1.074019
       5A2     1.095590    18A1     1.099736     9B1     1.256132
      19A1     1.259323    13B2     1.366578     6A2     1.384497
      20A1     1.446533    14B2     1.452350    21A1     1.541450
      10B1     1.551358    15B2     1.628730    11B1     1.639515
      22A1     1.929249    16B2     1.930789     7A2     2.054346
      17B2     2.085243    23A1     2.262365    18B2     2.858839
      12B1     2.865504    24A1     2.955869    25A1     2.971005
       8A2     3.202172    13B1     3.343081    26A1     3.399504
      27A1     3.427437    19B2     3.429833    14B1     3.429938
       9A2     3.515252    15B1     3.563362    20B2     3.575113
      28A1     3.615269    21B2     3.761906    29A1     3.845764
      22B2     4.017379    10A2     4.200038    30A1     4.237974
      23B2     4.244988    16B1     4.258236    31A1     4.630733
      17B1     4.655336    11A2     4.721487    24B2     4.923535
      32A1     4.945960    12A2     5.252227    25B2     5.299736
      18B1     5.303511    33A1     5.680039    34A1     5.913904
      26B2     6.062536    27B2     6.344516    35A1    14.970950

    Beta Occupied:

       1A1   -11.218659     2A1    -0.779832     1B2    -0.588349

    Beta Virtual:

       3A1     0.032632     2B2     0.045679     4A1     0.057991
       1B1     0.065574     3B2     0.138701     5A1     0.145673
       6A1     0.157969     2B1     0.178434     7A1     0.213521
       4B2     0.238679     1A2     0.269094     8A1     0.313675
       3B1     0.314942     5B2     0.337515     9A1     0.364639
       4B1     0.371859     6B2     0.378014    10A1     0.417436
       2A2     0.425771    11A1     0.435629     7B2     0.452127
      12A1     0.586899     5B1     0.675414     8B2     0.727889
      13A1     0.792208     9B2     0.813494     3A2     0.866444
       6B1     0.914393    14A1     0.919888    10B2     0.926686
      15A1     0.966604     7B1     0.968847    16A1     1.002891
      11B2     1.005313     4A2     1.029958    12B2     1.045424
      17A1     1.105718     5A2     1.136008     8B1     1.138942
      18A1     1.149545     9B1     1.294170    19A1     1.296532
      13B2     1.388257     6A2     1.405236    14B2     1.463242
      20A1     1.474675    10B1     1.571875    21A1     1.584426
      15B2     1.656601    11B1     1.693122    22A1     1.948525
      16B2     1.955333     7A2     2.076883    17B2     2.098325
      23A1     2.299836    18B2     2.869202    12B1     2.941459
      24A1     2.996001    25A1     3.042245     8A2     3.252414
      13B1     3.437082    19B2     3.456677    26A1     3.471748
      14B1     3.483035    27A1     3.518034     9A2     3.560308
      20B2     3.607113    15B1     3.625403    28A1     3.655006
      21B2     3.804392    29A1     3.863821    22B2     4.039223
      10A2     4.224160    30A1     4.255805    23B2     4.264712
      16B1     4.278174    31A1     4.638823    17B1     4.660583
      11A2     4.723181    24B2     4.923204    32A1     4.958296
      12A2     5.275831    25B2     5.311219    18B1     5.326272
      33A1     5.698997    34A1     5.926018    26B2     6.077329
      27B2     6.358877    35A1    15.003134

    Final Occupation by Irrep:
             A1    A2    B1    B2
    DOCC [     2,    0,    0,    1 ]
    SOCC [     1,    0,    1,    0 ]

  @UHF Final Energy:   -38.93820767003001

   => Energetics <=

    Nuclear Repulsion Energy =              6.1804860905452044
    One-Electron Energy =                 -63.9525518618081108
    Two-Electron Energy =                  18.8338581012328987
    Total Energy =                        -38.9382076700300104

  UHF NO Occupations:
  HONO-2 :    2 A1 1.9938530
  HONO-1 :    3 A1 1.0000000
  HONO-0 :    1 B1 1.0000000
  LUNO+0 :    4 A1 0.0061470
  LUNO+1 :    2 B2 0.0018549
  LUNO+2 :    5 A1 0.0000020
  LUNO+3 :    6 A1 0.0000000

Computation Completed

Properties will be evaluated at   0.000000,   0.000000,   0.000000 [a0]

Properties computed using the SCF density matrix

  Nuclear Dipole Moment: [e a0]
     X:     0.0000      Y:     0.0000      Z:    -0.6895

  Electronic Dipole Moment: [e a0]
     X:     0.0000      Y:     0.0000      Z:     0.4604

  Dipole Moment: [e a0]
     X:     0.0000      Y:     0.0000      Z:    -0.2291     Total:     0.2291

  Dipole Moment: [D]
     X:     0.0000      Y:     0.0000      Z:    -0.5823     Total:     0.5823

*** tstop() called on n412-040.vsc4.prov at Tue Jan 26 18:05:54 2021
Module time:
	user time   =      28.04 seconds =       0.47 minutes
	system time =       1.18 seconds =       0.02 minutes
	total time  =          3 seconds =       0.05 minutes
Total time:
	user time   =      28.04 seconds =       0.47 minutes
	system time =       1.18 seconds =       0.02 minutes
	total time  =          3 seconds =       0.05 minutes

*** tstart() called on n412-040.vsc4.prov
*** at Tue Jan 26 18:05:54 2021

	Wfn Parameters:
	--------------------
	Wavefunction         = CCSD_T
	Number of irreps     = 4
	Number of MOs        = 92
	Number of active MOs = 91
	AO-Basis             = NONE
	Semicanonical        = false
	Reference            = UHF
	Print Level          = 1

	IRREP	# MOs	# FZDC	# DOCC	# SOCC	# VIRT	# FZVR
	-----	-----	------	------	------	------	------
	 A1	   35	    1	    1	    1	    32	    0
	 A2	   12	    0	    0	    0	    12	    0
	 B1	   18	    0	    0	    1	    17	    0
	 B2	   27	    0	    1	    0	    26	    0
	Transforming integrals...
	IWL integrals will be deleted.
	(OO|OO)...
	Presorting SO-basis two-electron integrals.
	Sorting File: SO Ints (nn|nn) nbuckets = 1
	Constructing frozen core operators
	Starting AA/AB first half-transformation.
	Sorting AA/AB half-transformed integrals.
	Starting BB first half-transformation.
	Sorting BB half-transformed integrals.
	First half integral transformation complete.
	Starting AA second half-transformation.
	Starting AB second half-transformation.
	Starting BB second half-transformation.
	Two-electron integral transformation complete.
	(OO|OV)...
	Starting AA second half-transformation.
	Starting AB second half-transformation.
	Starting BB second half-transformation.
	Two-electron integral transformation complete.
	(OO|VV)...
	Starting AA second half-transformation.
	Starting AB second half-transformation.
	Starting BB second half-transformation.
	Two-electron integral transformation complete.
	(OV|OO)...
	Starting AA/AB first half-transformation.
	Sorting AA/AB half-transformed integrals.
	Starting BB first half-transformation.
	Sorting BB half-transformed integrals.
	First half integral transformation complete.
	Starting AA second half-transformation.
	Starting AB second half-transformation.
	Starting BB second half-transformation.
	Two-electron integral transformation complete.
	(OV|OV)...
	Starting AA second half-transformation.
	Starting AB second half-transformation.
	Starting BB second half-transformation.
	Two-electron integral transformation complete.
	(OV|VV)...
	Starting AA second half-transformation.
	Starting AB second half-transformation.
	Starting BB second half-transformation.
	Two-electron integral transformation complete.
	(VV|OO)...
	Starting AA/AB first half-transformation.
	Sorting AA/AB half-transformed integrals.
	Starting BB first half-transformation.
	Sorting BB half-transformed integrals.
	First half integral transformation complete.
	Starting AA second half-transformation.
	Starting AB second half-transformation.
	Starting BB second half-transformation.
	Two-electron integral transformation complete.
	(VV|OV)...
	Starting AA second half-transformation.
	Starting AB second half-transformation.
	Starting BB second half-transformation.
	Two-electron integral transformation complete.
	(VV|VV)...
	Starting AA second half-transformation.
	Starting AB second half-transformation.
	Starting BB second half-transformation.
	Two-electron integral transformation complete.
	Frozen core energy     =    -34.32928546509988

	Size of irrep 0 of <AB|CD> integrals:      1.047 (MW) /      8.372 (MB)
	Size of irrep 1 of <AB|CD> integrals:      0.682 (MW) /      5.458 (MB)
	Size of irrep 2 of <AB|CD> integrals:      0.733 (MW) /      5.862 (MB)
	Size of irrep 3 of <AB|CD> integrals:      1.073 (MW) /      8.586 (MB)
	Total:                                     3.535 (MW) /     28.279 (MB)

	Size of irrep 0 of <ab|cd> integrals:      1.149 (MW) /      9.193 (MB)
	Size of irrep 1 of <ab|cd> integrals:      0.746 (MW) /      5.972 (MB)
	Size of irrep 2 of <ab|cd> integrals:      0.821 (MW) /      6.567 (MB)
	Size of irrep 3 of <ab|cd> integrals:      1.153 (MW) /      9.228 (MB)
	Total:                                     3.870 (MW) /     30.960 (MB)

	Size of irrep 0 of <Ab|Cd> integrals:      4.761 (MW) /     38.089 (MB)
	Size of irrep 1 of <Ab|Cd> integrals:      2.856 (MW) /     22.849 (MB)
	Size of irrep 2 of <Ab|Cd> integrals:      3.101 (MW) /     24.809 (MB)
	Size of irrep 3 of <Ab|Cd> integrals:      4.452 (MW) /     35.617 (MB)
	Total:                                    15.170 (MW) /    121.364 (MB)

	Size of irrep 0 of <IA|BC> integrals:      0.228 (MW) /      1.826 (MB)
	Size of irrep 1 of <IA|BC> integrals:      0.111 (MW) /      0.885 (MB)
	Size of irrep 2 of <IA|BC> integrals:      0.134 (MW) /      1.068 (MB)
	Size of irrep 3 of <IA|BC> integrals:      0.199 (MW) /      1.591 (MB)
	Total:                                     0.671 (MW) /      5.371 (MB)

	Size of irrep 0 of <ia|bc> integrals:      0.132 (MW) /      1.054 (MB)
	Size of irrep 1 of <ia|bc> integrals:      0.052 (MW) /      0.415 (MB)
	Size of irrep 2 of <ia|bc> integrals:      0.054 (MW) /      0.435 (MB)
	Size of irrep 3 of <ia|bc> integrals:      0.127 (MW) /      1.014 (MB)
	Total:                                     0.365 (MW) /      2.917 (MB)

	Size of irrep 0 of <Ia|Bc> integrals:      0.240 (MW) /      1.920 (MB)
	Size of irrep 1 of <Ia|Bc> integrals:      0.115 (MW) /      0.919 (MB)
	Size of irrep 2 of <Ia|Bc> integrals:      0.143 (MW) /      1.141 (MB)
	Size of irrep 3 of <Ia|Bc> integrals:      0.205 (MW) /      1.637 (MB)
	Total:                                     0.702 (MW) /      5.618 (MB)

	Size of irrep 0 of <iA|bC> integrals:      0.127 (MW) /      1.012 (MB)
	Size of irrep 1 of <iA|bC> integrals:      0.049 (MW) /      0.392 (MB)
	Size of irrep 2 of <iA|bC> integrals:      0.051 (MW) /      0.409 (MB)
	Size of irrep 3 of <iA|bC> integrals:      0.122 (MW) /      0.979 (MB)
	Total:                                     0.349 (MW) /      2.792 (MB)

	Size of irrep 0 of tIjAb amplitudes:       0.007 (MW) /      0.052 (MB)
	Size of irrep 1 of tIjAb amplitudes:       0.002 (MW) /      0.014 (MB)
	Size of irrep 2 of tIjAb amplitudes:       0.002 (MW) /      0.014 (MB)
	Size of irrep 3 of tIjAb amplitudes:       0.006 (MW) /      0.051 (MB)
	Total:                                     0.016 (MW) /      0.131 (MB)

	Nuclear Rep. energy          =      6.18048609054520
	SCF energy                   =    -38.93820767003001
	One-electron energy          =    -17.77836473772269
	Two-electron (AA) energy     =      2.58477362541682
	Two-electron (BB) energy     =      0.36175718878600
	Two-electron (AB) energy     =      4.04242562804446
	Two-electron energy          =      6.98895644224728
	Reference energy             =    -38.93820767003008

*** tstop() called on n412-040.vsc4.prov at Tue Jan 26 18:06:04 2021
Module time:
	user time   =       2.19 seconds =       0.04 minutes
	system time =       1.25 seconds =       0.02 minutes
	total time  =         10 seconds =       0.17 minutes
Total time:
	user time   =      30.24 seconds =       0.50 minutes
	system time =       2.43 seconds =       0.04 minutes
	total time  =         13 seconds =       0.22 minutes
            **************************
            *                        *
            *        CCENERGY        *
            *                        *
            **************************

    Nuclear Rep. energy (wfn)     =    6.180486090545204
    SCF energy          (wfn)     =  -38.938207670030010
    Reference energy    (file100) =  -38.938207670030081

    Input parameters:
    -----------------
    Wave function   =     CCSD_T
    Reference wfn   =     UHF
    Brueckner       =     No
    Memory (Mbytes) =     250000.0
    Maxiter         =     50
    R_Convergence   =     1.0e-07
    E_Convergence   =     1.0e-06
    Restart         =     Yes
    DIIS            =     Yes
    AO Basis        =     NONE
    ABCD            =     NEW
    Cache Level     =     2
    Cache Type      =     LRU
    Print Level     =     1
    Num. of threads =     48
    # Amps to Print =     10
    Print MP2 Amps? =     No
    Analyze T2 Amps =     No
    Print Pair Ener =     No
    Local CC        =     No
    SCS-MP2         =     False
    SCSN-MP2        =     False
    SCS-CCSD        =     False

MP2 correlation energy -0.1193744471227296
                Solving CC Amplitude Equations
                ------------------------------
  Iter             Energy              RMS        T1Diag      D1Diag    New D1Diag    D2Diag
  ----     ---------------------    ---------   ----------  ----------  ----------   --------
     0        -0.119374447122730    0.000e+00    0.000000    0.000000    0.000000    0.000000
     1        -0.133103289734738    3.843e-02    0.008260    0.000000    0.000000    0.000000
     2        -0.137855221994128    1.542e-02    0.013680    0.000000    0.000000    0.000000
     3        -0.138241301532549    5.306e-03    0.016322    0.000000    0.000000    0.000000
     4        -0.138249147029273    1.562e-03    0.016895    0.000000    0.000000    0.000000
     5        -0.138254862850155    5.266e-04    0.016989    0.000000    0.000000    0.000000
     6        -0.138259438934490    1.885e-04    0.016982    0.000000    0.000000    0.000000
     7        -0.138260835718435    7.126e-05    0.016973    0.000000    0.000000    0.000000
     8        -0.138260808129988    2.186e-05    0.016970    0.000000    0.000000    0.000000
     9        -0.138260744080044    6.482e-06    0.016970    0.000000    0.000000    0.000000
    10        -0.138260766433889    2.292e-06    0.016970    0.000000    0.000000    0.000000
    11        -0.138260767348517    8.086e-07    0.016970    0.000000    0.000000    0.000000
    12        -0.138260770589325    2.274e-07    0.016970    0.000000    0.000000    0.000000
    13        -0.138260769738058    6.945e-08    0.016970    0.000000    0.000000    0.000000

    Iterations converged.

    Largest TIA Amplitudes:
              2  44        -0.0100515244
              2  45        -0.0090289972
              1   1        -0.0076823240
              0   3        -0.0074211621
              1   4        -0.0064549297
              0   8        -0.0064435445
              0   7         0.0048820187
              1   3         0.0047479168
              2  48         0.0039175064
              1   8         0.0039013386

    Largest Tia Amplitudes:
              0   3         0.0142555733
              0   9         0.0133069132
              0   4         0.0118883150
              0   1         0.0100523581
              0   7        -0.0080480864
              0   8        -0.0065451698
              1  70         0.0063818111
              1  68         0.0057498213
              0   6        -0.0053575303
              0  12         0.0053185231

    Largest TIJAB Amplitudes:
      2   1  47   9         0.0132345092
      3   1  66   8         0.0109183409
      2   1  45   4        -0.0105666110
      2   1  48  10        -0.0105582893
      3   1  63   8         0.0102542784
      3   2  68  47        -0.0101348754
      2   1  47   5        -0.0101073854
      3   1  67   8         0.0099586351
      3   2  66  47        -0.0098693162
      2   1  47   1        -0.0097562717

    Largest Tijab Amplitudes:
      1   0  46  35         0.0053145858
      1   0  46  37        -0.0049769238
      1   0  69   3        -0.0045226504
      1   0  46  33        -0.0041289276
      1   0  68   3        -0.0039167676
      1   0  69   1        -0.0039095626
      1   0  65   3        -0.0037959918
      1   0  70   7         0.0037047109
      1   0  68   7         0.0033057955
      1   0  45  35         0.0031357135

    Largest TIjAb Amplitudes:
      2   0   3  46        -0.0173748880
      3   1  68  70        -0.0173474323
      3   1   8   9        -0.0168339994
      3   1  67  69        -0.0158801685
      2   0  10  46         0.0143525785
      1   0  48  46        -0.0141759962
      2   0   9  46         0.0140587839

      * MP2 total energy                      =  -39.057582117152812
      * CCSD total energy                     =  -39.076468439768142
      * CCSD(T) total energy                     =  -39.080056970373640
*** Psi4 exiting successfully. Buy a developer a beer!
