                               Psi4 1.4a3.dev88

  ==> Input File <==

--------------------------------------------------------------------------
# Any line starting with the # character is a comment line
memory 250000 mb
molecule molecule{
0 3
C          0.0000000000        0.0000000000        0.0617255311
H          0.0000000000        0.9845500245       -0.3677725628
H          0.0000000000       -0.9845500245       -0.3677725628
}

set {
  reference uhf
  basis aug-cc-pv(5+d)z
  scf_type OUT_OF_CORE
  freeze_core true
}

energy('ccsd(t)')
--------------------------------------------------------------------------

    Molecular point group: c2v

    Geometry (in Angstrom), charge = 0, multiplicity = 3:

       Center              X                  Y                   Z               Mass
    ------------   -----------------  -----------------  -----------------  -----------------
         C            0.000000000000     0.000000000000     0.061767942027    12.000000000000
         H           -0.000000000000     0.984550024500    -0.367730151873     1.007825032230
         H            0.000000000000    -0.984550024500    -0.367730151873     1.007825032230

  Charge       = 0
  Multiplicity = 3
  Basis Set: AUG-CC-PV(5+D)Z
    Blend: AUG-CC-PV(5+D)Z

    Orbital Energies [Eh]
    ---------------------

    Alpha Occupied:

       1A1   -11.264606     2A1    -0.950358     1B2    -0.619034
       3A1    -0.453327     1B1    -0.409697

    Alpha Virtual:

       4A1     0.023981     2B2     0.035589     5A1     0.061641
       2B1     0.065055     3B2     0.098179     6A1     0.108574
       7A1     0.154017     4B2     0.165305     1A2     0.180658
       8A1     0.194564     3B1     0.196003     9A1     0.227405
       5B2     0.229696     4B1     0.233505     6B2     0.245339
      10A1     0.260997     2A2     0.280132     7B2     0.296114
      11A1     0.302629     5B1     0.327903    12A1     0.343387
       8B2     0.397223    13A1     0.429044     3A2     0.480102
       9B2     0.483074    14A1     0.511790     6B1     0.515220
       7B1     0.553199    15A1     0.563260    10B2     0.566268
      16A1     0.592221     8B1     0.595083     4A2     0.621304
      17A1     0.624858    11B2     0.625350    18A1     0.651842
       9B1     0.677724    12B2     0.678214     5A2     0.679258
      13B2     0.691047    19A1     0.697490     6A2     0.758155
      14B2     0.790030    15B2     0.794791    20A1     0.815442
      10B1     0.842563    21A1     0.859254    11B1     0.965778
      16B2     1.025802    22A1     1.046048     7A2     1.079124
      12B1     1.113029    23A1     1.124906    17B2     1.151919
      24A1     1.212477    13B1     1.263975    18B2     1.277478
      25A1     1.312685     8A2     1.315451    19B2     1.327360
      26A1     1.339837     9A2     1.395287    14B1     1.403349
      20B2     1.408110    27A1     1.421235    10A2     1.466400
      21B2     1.472068    15B1     1.487238    28A1     1.488033
      22B2     1.536162    29A1     1.551242    23B2     1.633250
      16B1     1.634464    30A1     1.643394    11A2     1.644291
      31A1     1.686563    17B1     1.697705    18B1     1.756613
      32A1     1.761131    24B2     1.795382    12A2     1.817638
      25B2     1.838921    33A1     1.870821    13A2     1.905934
      26B2     1.952250    19B1     1.952271    34A1     1.986339
      27B2     2.077767    20B1     2.089008    35A1     2.102926
      14A2     2.114290    36A1     2.208831    37A1     2.380255
      28B2     2.385147    21B1     2.442329    29B2     2.476225
      38A1     2.575468    15A2     2.671959    30B2     2.679636
      39A1     2.712179    22B1     2.736792    23B1     2.828836
      31B2     2.868308    40A1     2.898309    16A2     2.899893
      41A1     3.038680    24B1     3.041491    17A2     3.049545
      42A1     3.084744    32B2     3.146634    33B2     3.206329
      18A2     3.272816    43A1     3.285511    34B2     3.301795
      44A1     3.328961    25B1     3.333217    26B1     3.368381
      35B2     3.369484    19A2     3.423079    27B1     3.458049
      45A1     3.459132    36B2     3.469552    20A2     3.496566
      46A1     3.536147    21A2     3.562843    37B2     3.592553
      38B2     3.626048    28B1     3.753824    47A1     3.771365
      29B1     3.786321    39B2     3.791665    48A1     3.825849
      49A1     3.840956    40B2     3.897975    22A2     3.967801
      30B1     3.989999    50A1     4.019613    41B2     4.050965
      23A2     4.065442    31B1     4.126888    51A1     4.128495
      32B1     4.149060    52A1     4.164983    42B2     4.206896
      53A1     4.259847    24A2     4.366121    33B1     4.366508
      54A1     4.379371    43B2     4.493114    34B1     4.583345
      25A2     4.596342    26A2     4.600961    44B2     4.660131
      55A1     4.756531    45B2     4.783145    56A1     4.858898
      35B1     4.883492    46B2     4.889529    57A1     5.004850
      58A1     5.142216    36B1     5.189956    27A2     5.206968
      59A1     5.412227    47B2     5.432281    37B1     5.463300
      28A2     5.674369    60A1     5.723710    48B2     5.774522
      38B1     5.879727    49B2     5.880201    61A1     6.025958
      50B2     6.079400    29A2     6.098994    62A1     6.161668
      39B1     6.208504    63A1     6.224431    51B2     6.364763
      30A2     6.469282    64A1     6.784323    40B1     6.856199
      52B2     6.859284    31A2     6.905645    65A1     7.118464
      53B2     7.120142    41B1     7.172717    54B2     7.369817
      32A2     7.487642    55B2     7.541546    66A1     7.648761
      33A2     7.864537    56B2     7.923531    42B1     7.992958
      67A1     8.100327    68A1     8.394897    57B2     8.421053
      69A1     9.016503    43B1     9.039314    70A1     9.040995
      58B2     9.219009    34A2     9.275125    44B1     9.320070
      45B1     9.576278    35A2     9.585292    71A1     9.623050
      46B1     9.741765    59B2     9.816480    72A1    10.040299
      60B2    10.050120    73A1    10.221720    36A2    10.340676
      74A1    10.441840    47B1    10.445496    61B2    10.446793
      37A2    10.551457    48B1    10.577174    75A1    10.669104
      49B1    10.777641    76A1    10.908338    62B2    10.927758
      63B2    11.151295    77A1    11.239510    38A2    11.550714
      78A1    11.766277    50B1    11.794249    64B2    11.988653
      65B2    12.178574    79A1    12.534096    51B1    12.753070
      39A2    13.217407    66B2    13.219534    80A1    13.242437
      52B1    13.249197    40A2    13.276427    81A1    13.369167
      53B1    13.435158    41A2    13.506083    67B2    13.586039
      68B2    13.624136    82A1    13.643504    54B1    13.686955
      83A1    13.770700    42A2    13.955561    69B2    14.028114
      43A2    14.284377    70B2    14.333602    55B1    14.354233
      84A1    14.355348    71B2    14.446898    85A1    14.495315
      44A2    14.551141    56B1    14.648478    86A1    14.715363
      45A2    14.772174    57B1    14.832959    72B2    14.954129
      73B2    15.082727    87A1    15.091769    58B1    15.187405
      88A1    15.264201    74B2    15.301839    46A2    15.521128
      47A2    15.590871    89A1    15.841141    75B2    16.254952
      90A1    16.270377    59B1    16.417125    76B2    16.458402
      91A1    16.554031    77B2    16.875329    60B1    17.842298
      78B2    17.894879    48A2    17.934326    92A1    18.110108
      61B1    18.204224    49A2    18.617912    79B2    18.731738
      93A1    19.233209    94A1    19.610448    80B2    19.853310
      95A1    21.293314    81B2    21.528410    96A1    40.319223

    Beta Occupied:

       1A1   -11.217359     2A1    -0.779606     1B2    -0.588484

    Beta Virtual:

       3A1     0.025490     2B2     0.035863     4A1     0.046970
       1B1     0.051731     3B2     0.099010     5A1     0.112872
       6A1     0.120201     2B1     0.137547     7A1     0.157953
       4B2     0.170114     1A2     0.184312     3B1     0.207294
       8A1     0.207593     5B2     0.230800     9A1     0.244708
       6B2     0.247165     4B1     0.255467     2A2     0.282606
      10A1     0.292966     7B2     0.299385    11A1     0.317663
      12A1     0.364960     5B1     0.394100     8B2     0.421494
      13A1     0.449971     9B2     0.489100     3A2     0.494418
       6B1     0.540007    14A1     0.542647     7B1     0.564351
      10B2     0.567747    15A1     0.569540    16A1     0.604033
       8B1     0.608621     4A2     0.623914    11B2     0.630235
      17A1     0.659191    18A1     0.672157     5A2     0.683071
      12B2     0.683398     9B1     0.688375    13B2     0.703550
      19A1     0.712444     6A2     0.784249    14B2     0.793671
      15B2     0.821852    20A1     0.841985    10B1     0.878896
      21A1     0.889671    16B2     1.033874    11B1     1.048874
      22A1     1.082728     7A2     1.090011    12B1     1.126676
      23A1     1.139582    17B2     1.159820    24A1     1.224536
      13B1     1.269948    18B2     1.282632     8A2     1.317370
      25A1     1.333075    19B2     1.339155    26A1     1.367779
       9A2     1.398311    14B1     1.409067    20B2     1.413238
      27A1     1.427461    10A2     1.472285    21B2     1.480517
      15B1     1.497242    28A1     1.497490    22B2     1.540355
      29A1     1.558666    23B2     1.652789    16B1     1.672587
      30A1     1.676807    11A2     1.693427    17B1     1.722974
      31A1     1.723256    32A1     1.805097    24B2     1.813715
      18B1     1.817795    12A2     1.833060    25B2     1.850448
      33A1     1.906036    13A2     1.916350    26B2     1.967601
      19B1     1.968261    34A1     2.000855    27B2     2.093288
      20B1     2.108051    35A1     2.125089    14A2     2.129186
      36A1     2.225830    28B2     2.398419    37A1     2.403733
      29B2     2.487195    21B1     2.502975    38A1     2.604373
      15A2     2.679636    30B2     2.684253    39A1     2.742130
      22B1     2.761327    23B1     2.836393    31B2     2.876636
      16A2     2.905607    40A1     2.910191    41A1     3.049410
      24B1     3.050302    17A2     3.061865    42A1     3.096039
      32B2     3.150922    33B2     3.225501    18A2     3.290120
      43A1     3.291626    34B2     3.307432    44A1     3.335250
      25B1     3.340140    35B2     3.371955    26B1     3.372306
      19A2     3.430265    27B1     3.464313    45A1     3.468150
      36B2     3.477184    20A2     3.509375    46A1     3.553821
      21A2     3.575047    37B2     3.599518    38B2     3.645353
      28B1     3.772495    47A1     3.790646    39B2     3.808127
      29B1     3.827996    48A1     3.838371    49A1     3.879950
      40B2     3.916694    22A2     3.981961    30B1     4.030758
      50A1     4.055617    41B2     4.069070    23A2     4.092098
      51A1     4.159366    31B1     4.160168    32B1     4.191235
      52A1     4.204166    42B2     4.224144    53A1     4.278541
      24A2     4.385554    33B1     4.394459    54A1     4.402609
      43B2     4.510771    34B1     4.601881    25A2     4.615360
      26A2     4.619865    44B2     4.679237    55A1     4.779425
      45B2     4.792887    56A1     4.882036    46B2     4.906435
      35B1     4.908811    57A1     5.036667    58A1     5.163614
      27A2     5.224224    36B1     5.224299    59A1     5.425169
      47B2     5.448724    37B1     5.472778    28A2     5.685416
      60A1     5.745333    48B2     5.783248    49B2     5.891160
      38B1     5.904223    61A1     6.041955    50B2     6.083336
      29A2     6.100838    62A1     6.176198    39B1     6.212686
      63A1     6.228656    51B2     6.384456    30A2     6.493690
      64A1     6.799539    40B1     6.871192    52B2     6.871435
      31A2     6.918118    53B2     7.126910    65A1     7.129084
      41B1     7.180574    54B2     7.374587    32A2     7.496868
      55B2     7.555523    66A1     7.653399    33A2     7.877430
      56B2     7.934982    42B1     8.010195    67A1     8.114039
      68A1     8.408881    57B2     8.431847    69A1     9.056231
      43B1     9.073351    70A1     9.075177    58B2     9.244629
      34A2     9.301082    44B1     9.358369    45B1     9.602701
      35A2     9.605279    71A1     9.650999    46B1     9.771734
      59B2     9.835274    60B2    10.066202    72A1    10.070494
      73A1    10.250886    36A2    10.369600    61B2    10.478003
      74A1    10.487576    47B1    10.489701    37A2    10.580737
      48B1    10.603400    75A1    10.698392    49B1    10.819360
      76A1    10.939098    62B2    10.950116    63B2    11.179616
      77A1    11.263443    38A2    11.585206    78A1    11.785824
      50B1    11.828848    64B2    12.005476    65B2    12.201731
      79A1    12.577122    51B1    12.793910    39A2    13.218619
      66B2    13.220618    80A1    13.243947    52B1    13.250592
      40A2    13.300820    81A1    13.369051    53B1    13.435660
      41A2    13.506260    67B2    13.593432    68B2    13.634548
      82A1    13.650367    54B1    13.691232    83A1    13.779258
      42A2    13.959044    69B2    14.031696    43A2    14.288634
      70B2    14.335439    55B1    14.353782    84A1    14.357401
      71B2    14.447717    85A1    14.496410    44A2    14.550324
      56B1    14.649890    86A1    14.716105    45A2    14.774965
      57B1    14.835720    72B2    14.956952    73B2    15.085731
      87A1    15.094120    58B1    15.191518    88A1    15.266044
      74B2    15.304953    46A2    15.525014    47A2    15.593572
      89A1    15.846699    75B2    16.256338    90A1    16.273015
      59B1    16.421848    76B2    16.461186    91A1    16.556188
      77B2    16.876089    60B1    17.845482    78B2    17.898300
      48A2    17.934690    92A1    18.110150    61B1    18.207042
      49A2    18.624908    79B2    18.732519    93A1    19.237847
      94A1    19.616283    80B2    19.858542    95A1    21.294988
      81B2    21.530274    96A1    40.339730

    Final Occupation by Irrep:
             A1    A2    B1    B2
    DOCC [     2,    0,    0,    1 ]
    SOCC [     1,    0,    1,    0 ]

  @UHF Final Energy:   -38.94093513466258

   => Energetics <=

    Nuclear Repulsion Energy =              6.1804860905452044
    One-Electron Energy =                 -63.9603720647407243
    Two-Electron Energy =                  18.8389508395329379
    Total Energy =                        -38.9409351346625812

  UHF NO Occupations:
  HONO-2 :    2 A1 1.9938240
  HONO-1 :    1 B1 1.0000000
  HONO-0 :    3 A1 1.0000000
  LUNO+0 :    4 A1 0.0061760
  LUNO+1 :    2 B2 0.0018567
  LUNO+2 :    5 A1 0.0000025
  LUNO+3 :    6 A1 0.0000000

Computation Completed

Properties will be evaluated at   0.000000,   0.000000,   0.000000 [a0]

Properties computed using the SCF density matrix

  Nuclear Dipole Moment: [e a0]
     X:     0.0000      Y:     0.0000      Z:    -0.6895

  Electronic Dipole Moment: [e a0]
     X:     0.0000      Y:     0.0000      Z:     0.4613

  Dipole Moment: [e a0]
     X:     0.0000      Y:     0.0000      Z:    -0.2281     Total:     0.2281

  Dipole Moment: [D]
     X:     0.0000      Y:     0.0000      Z:    -0.5798     Total:     0.5798

*** tstop() called on n412-041.vsc4.prov at Wed Jan 20 22:24:38 2021
Module time:
	user time   =     222.26 seconds =       3.70 minutes
	system time =      26.95 seconds =       0.45 minutes
	total time  =        251 seconds =       4.18 minutes
Total time:
	user time   =     222.26 seconds =       3.70 minutes
	system time =      26.95 seconds =       0.45 minutes
	total time  =        251 seconds =       4.18 minutes

*** tstart() called on n412-041.vsc4.prov
*** at Wed Jan 20 22:24:38 2021

	Wfn Parameters:
	--------------------
	Wavefunction         = CCSD_T
	Number of irreps     = 4
	Number of MOs        = 287
	Number of active MOs = 286
	AO-Basis             = NONE
	Semicanonical        = false
	Reference            = UHF
	Print Level          = 1

	IRREP	# MOs	# FZDC	# DOCC	# SOCC	# VIRT	# FZVR
	-----	-----	------	------	------	------	------
	 A1	   96	    1	    1	    1	    93	    0
	 A2	   49	    0	    0	    0	    49	    0
	 B1	   61	    0	    0	    1	    60	    0
	 B2	   81	    0	    1	    0	    80	    0
	Transforming integrals...
	IWL integrals will be deleted.
	(OO|OO)...
	Presorting SO-basis two-electron integrals.
	Sorting File: SO Ints (nn|nn) nbuckets = 1
	Constructing frozen core operators
	Starting AA/AB first half-transformation.
	Sorting AA/AB half-transformed integrals.
	Starting BB first half-transformation.
	Sorting BB half-transformed integrals.
	First half integral transformation complete.
	Starting AA second half-transformation.
	Starting AB second half-transformation.
	Starting BB second half-transformation.
	Two-electron integral transformation complete.
	(OO|OV)...
	Starting AA second half-transformation.
	Starting AB second half-transformation.
	Starting BB second half-transformation.
	Two-electron integral transformation complete.
	(OO|VV)...
	Starting AA second half-transformation.
	Starting AB second half-transformation.
	Starting BB second half-transformation.
	Two-electron integral transformation complete.
	(OV|OO)...
	Starting AA/AB first half-transformation.
	Sorting AA/AB half-transformed integrals.
	Starting BB first half-transformation.
	Sorting BB half-transformed integrals.
	First half integral transformation complete.
	Starting AA second half-transformation.
	Starting AB second half-transformation.
	Starting BB second half-transformation.
	Two-electron integral transformation complete.
	(OV|OV)...
	Starting AA second half-transformation.
	Starting AB second half-transformation.
	Starting BB second half-transformation.
	Two-electron integral transformation complete.
	(OV|VV)...
	Starting AA second half-transformation.
	Starting AB second half-transformation.
	Starting BB second half-transformation.
	Two-electron integral transformation complete.
	(VV|OO)...
	Starting AA/AB first half-transformation.
	Sorting AA/AB half-transformed integrals.
	Starting BB first half-transformation.
	Sorting BB half-transformed integrals.
	First half integral transformation complete.
	Starting AA second half-transformation.
	Starting AB second half-transformation.
	Starting BB second half-transformation.
	Two-electron integral transformation complete.
	(VV|OV)...
	Starting AA second half-transformation.
	Starting AB second half-transformation.
	Starting BB second half-transformation.
	Two-electron integral transformation complete.
	(VV|VV)...
	Starting AA second half-transformation.
	Starting AB second half-transformation.
	Starting BB second half-transformation.
	Two-electron integral transformation complete.
	Frozen core energy     =    -34.33003929258848

	Size of irrep 0 of <AB|CD> integrals:    107.827 (MW) /    862.620 (MB)
	Size of irrep 1 of <AB|CD> integrals:     87.553 (MW) /    700.428 (MB)
	Size of irrep 2 of <AB|CD> integrals:     90.250 (MW) /    722.000 (MB)
	Size of irrep 3 of <AB|CD> integrals:    107.744 (MW) /    861.955 (MB)
	Total:                                   393.375 (MW) /   3147.002 (MB)

	Size of irrep 0 of <ab|cd> integrals:    111.028 (MW) /    888.227 (MB)
	Size of irrep 1 of <ab|cd> integrals:     89.984 (MW) /    719.874 (MB)
	Size of irrep 2 of <ab|cd> integrals:     93.200 (MW) /    745.598 (MB)
	Size of irrep 3 of <ab|cd> integrals:    110.439 (MW) /    883.513 (MB)
	Total:                                   404.651 (MW) /   3237.211 (MB)

	Size of irrep 0 of <Ab|Cd> integrals:    449.567 (MW) /   3596.538 (MB)
	Size of irrep 1 of <Ab|Cd> integrals:    355.059 (MW) /   2840.469 (MB)
	Size of irrep 2 of <Ab|Cd> integrals:    366.837 (MW) /   2934.699 (MB)
	Size of irrep 3 of <Ab|Cd> integrals:    436.350 (MW) /   3490.803 (MB)
	Total:                                  1607.814 (MW) /  12862.509 (MB)

	Size of irrep 0 of <IA|BC> integrals:      6.862 (MW) /     54.898 (MB)
	Size of irrep 1 of <IA|BC> integrals:      4.454 (MW) /     35.631 (MB)
	Size of irrep 2 of <IA|BC> integrals:      4.978 (MW) /     39.824 (MB)
	Size of irrep 3 of <IA|BC> integrals:      6.270 (MW) /     50.156 (MB)
	Total:                                    22.564 (MW) /    180.510 (MB)

	Size of irrep 0 of <ia|bc> integrals:      3.716 (MW) /     29.730 (MB)
	Size of irrep 1 of <ia|bc> integrals:      2.087 (MW) /     16.695 (MB)
	Size of irrep 2 of <ia|bc> integrals:      2.124 (MW) /     16.991 (MB)
	Size of irrep 3 of <ia|bc> integrals:      3.657 (MW) /     29.257 (MB)
	Total:                                    11.584 (MW) /     92.674 (MB)

	Size of irrep 0 of <Ia|Bc> integrals:      6.976 (MW) /     55.806 (MB)
	Size of irrep 1 of <Ia|Bc> integrals:      4.503 (MW) /     36.028 (MB)
	Size of irrep 2 of <Ia|Bc> integrals:      5.076 (MW) /     40.604 (MB)
	Size of irrep 3 of <Ia|Bc> integrals:      6.329 (MW) /     50.635 (MB)
	Total:                                    22.884 (MW) /    183.073 (MB)

	Size of irrep 0 of <iA|bC> integrals:      3.668 (MW) /     29.345 (MB)
	Size of irrep 1 of <iA|bC> integrals:      2.054 (MW) /     16.431 (MB)
	Size of irrep 2 of <iA|bC> integrals:      2.088 (MW) /     16.701 (MB)
	Size of irrep 3 of <iA|bC> integrals:      3.614 (MW) /     28.910 (MB)
	Total:                                    11.423 (MW) /     91.388 (MB)

	Size of irrep 0 of tIjAb amplitudes:       0.064 (MW) /      0.509 (MB)
	Size of irrep 1 of tIjAb amplitudes:       0.019 (MW) /      0.151 (MB)
	Size of irrep 2 of tIjAb amplitudes:       0.019 (MW) /      0.153 (MB)
	Size of irrep 3 of tIjAb amplitudes:       0.063 (MW) /      0.501 (MB)
	Total:                                     0.164 (MW) /      1.314 (MB)

	Nuclear Rep. energy          =      6.18048609054520
	SCF energy                   =    -38.94093513466258
	One-electron energy          =    -17.78225880777972

      * MP2 total energy                      =  -39.070051216857699
      * CCSD total energy                     =  -39.086323846692437
      * CCSD(T) total energy                     =  -39.090340829891126
*** Psi4 exiting successfully. Buy a developer a beer!
