                               Psi4 1.2a1.dev939

  ==> Input File <==

--------------------------------------------------------------------------
# Any line starting with the # character is a comment line
memory 250000 mb
molecule molecule{
1 2
Si          0.0000000000        0.0000000000        0.0000000000
}

set {
  reference uhf
  basis aug-cc-pv(6+d)z
  scf_type OUT_OF_CORE
  freeze_core true
}

energy('ccsd')
--------------------------------------------------------------------------

    Molecular point group: d2h
    Geometry (in Angstrom), charge = 1, multiplicity = 2:

       Center              X                  Y                   Z               Mass
    ------------   -----------------  -----------------  -----------------  -----------------
          SI          0.000000000000     0.000000000000     0.000000000000    27.976926532460

  Charge       = 1
  Multiplicity = 2
  Basis Set: AUG-CC-PV(6+D)Z
    Blend: AUG-CC-PV(6+D)Z

    Orbital Energies (a.u.)
    -----------------------

    Alpha Occupied:

       1Ag   -69.176597     2Ag    -6.514859     1B1u   -4.624613
       1B3u   -4.610548     1B2u   -4.610548     3Ag    -0.884773
       2B1u   -0.596326

    Alpha Virtual:

       2B3u   -0.262538     2B2u   -0.262538     4Ag    -0.106886
       3B1u   -0.073757     3B3u   -0.071864     3B2u   -0.071864
       1B2g   -0.049811     1B3g   -0.049811     5Ag    -0.049621
       6Ag    -0.048616     1B1g   -0.048616     4B1u    0.025873
       4B3u    0.031894     4B2u    0.031894     7Ag     0.063370
       8Ag     0.079515     2B2g    0.080800     2B3g    0.080800
       9Ag     0.090530     2B1g    0.090530     5B2u    0.095237
       5B3u    0.095237     1Au     0.099510     5B1u    0.099510
       6B3u    0.102256     6B2u    0.102256     6B1u    0.103178
       3B1g    0.361552    10Ag     0.361552     3B2g    0.366942
       3B3g    0.366942     7B1u    0.368020     4B1g    0.370754
      11Ag     0.370754     4B2g    0.372973     4B3g    0.372973
      12Ag     0.373700     7B3u    0.376818     7B2u    0.376818
      13Ag     0.446009     5B2g    0.446694     5B3g    0.446694
      14Ag     0.450655     5B1g    0.450655     8B2u    0.480083
       8B3u    0.480083     2Au     0.486100     8B1u    0.486100
       9B3u    0.489889     9B2u    0.489889     9B1u    0.491138
      15Ag     0.643894    10B2u    1.069868    10B3u    1.069868
       3Au     1.077864    10B1u    1.077864    11B2u    1.084186
      11B3u    1.084186     4Au     1.088757    11B1u    1.088757
      12B3u    1.091521    12B2u    1.091521    12B1u    1.092446
      16Ag     1.129607     6B1g    1.129607     6B3g    1.139212
       6B2g    1.139212     7B1g    1.145910    17Ag     1.145910
       7B2g    1.149870     7B3g    1.149870    18Ag     1.151182
      13B2u    1.284078    13B3u    1.284078    19Ag     1.291141
       8B1g    1.291141     5Au     1.293080    13B1u    1.293080
      14B3u    1.298056    14B2u    1.298056    14B1u    1.299635
       8B2g    1.303909     8B3g    1.303909    20Ag     1.308254
      15B3u    1.405017    15B2u    1.405017    15B1u    1.408922
       9B1g    2.488668    21Ag     2.488668    22Ag     2.493487
       9B2g    2.499313     9B3g    2.499313    23Ag     2.508106
      10B1g    2.508106    10B2g    2.515002    10B3g    2.515002
      11B1g    2.519962    24Ag     2.519962    11B2g    2.522951
      11B3g    2.522951    25Ag     2.523950    26Ag     2.592163
      12B1g    2.592163    12B3g    2.605968    12B2g    2.605968
      13B1g    2.615788    27Ag     2.615788    13B2g    2.621667
      13B3g    2.621667    28Ag     2.623626    16B3u    2.693128
      16B2u    2.693128    16B1u    2.705919     6Au     2.705919
      17B2u    2.715991    17B3u    2.715991     7Au     2.723252
      17B1u    2.723252    18B3u    2.727635    18B2u    2.727635
      18B1u    2.729100    19B2u    2.984139    19B3u    2.984139
      19B1u    2.999617     8Au     2.999617    20B3u    3.009027
      20B2u    3.009027    20B1u    3.012180    29Ag     3.066518
      14B1g    3.066518    14B2g    3.086512    14B3g    3.086512
      30Ag     3.093808    21B3u    4.463059    21B2u    4.463059
      21B1u    4.475256    31Ag     5.420302    15B1g    5.420302
      15B3g    5.436308    15B2g    5.436308    32Ag     5.447823
      16B1g    5.447823    16B2g    5.454764    16B3g    5.454764
      33Ag     5.457082    34Ag     5.681505    17B1g    5.681505
      17B2g    5.695678    17B3g    5.695678    18B1g    5.707458
      35Ag     5.707458    18B3g    5.716736    18B2g    5.716736
      36Ag     5.723428    19B1g    5.723428    19B2g    5.727469
      19B3g    5.727469    37Ag     5.728821    22B3u    5.989551
      22B2u    5.989551    22B1u    6.004832     9Au     6.004832
      23B2u    6.016869    23B3u    6.016869    23B1u    6.025548
      10Au     6.025548    24B3u    6.030788    24B2u    6.030788
      24B1u    6.032540    25B2u    6.582779    25B3u    6.582779
      25B1u    6.600147    11Au     6.600147    26B3u    6.610781
      26B2u    6.610781    26B1u    6.614363    38Ag     6.625491
      20B1g    6.625491    20B2g    6.643010    20B3g    6.643010
      39Ag     6.648850    40Ag     8.421943    41Ag    18.525450
      21B1g   18.525450    21B2g   18.531570    21B3g   18.531570
      42Ag    18.533678    27B3u   19.123384    27B2u   19.123384
      27B1u   19.126392    43Ag   177.583906

    Beta Occupied:

       1Ag   -69.169870     2Ag    -6.507709     1B3u   -4.607287
       1B2u   -4.607287     1B1u   -4.590778     3Ag    -0.796218

    Beta Virtual:

       2B2u   -0.251758     2B3u   -0.251758     2B1u   -0.200769
       4Ag    -0.103505     3B3u   -0.071151     3B2u   -0.071151
       3B1u   -0.064204     5Ag    -0.048118     1B1g   -0.048118
       1B2g   -0.039548     1B3g   -0.039548     6Ag    -0.036373
       4B3u    0.033505     4B2u    0.033505     4B1u    0.047520
       7Ag     0.070608     8Ag     0.091849     2B1g    0.091849
       5B2u    0.095347     5B3u    0.095347     5B1u    0.101259
       1Au     0.101259     6B3u    0.105012     6B2u    0.105012
       6B1u    0.106324     2B2g    0.111489     2B3g    0.111489
       9Ag     0.119652     3B1g    0.361617    10Ag     0.361617
       3B2g    0.368224     3B3g    0.368224    11Ag     0.373061
       4B1g    0.373061     4B2g    0.376063     4B3g    0.376063
      12Ag     0.377086     7B3u    0.380345     7B2u    0.380345
       7B1u    0.409116     5B1g    0.452000    13Ag     0.452000
       5B2g    0.479317     5B3g    0.479317     8B3u    0.480456
       8B2u    0.480456    14Ag     0.490149     8B1u    0.496102
       2Au     0.496102     9B3u    0.506102     9B2u    0.506102
       9B1u    0.509618    15Ag     0.656642    10B2u    1.069858
      10B3u    1.069858    10B1u    1.079846     3Au     1.079846
      11B2u    1.087814    11B3u    1.087814    11B1u    1.093621
       4Au     1.093621    12B3u    1.097154    12B2u    1.097154
      12B1u    1.098340    16Ag     1.129628     6B1g    1.129628
       6B2g    1.145007     6B3g    1.145007    17Ag     1.155978
       7B1g    1.155978     7B2g    1.162669     7B3g    1.162669
      18Ag     1.164930    13B3u    1.284419    13B2u    1.284419
       8B1g    1.292384    19Ag     1.292384    13B1u    1.309325
       5Au     1.309325     8B2g    1.321853     8B3g    1.321853
      14B3u    1.324298    14B2u    1.324298    14B1u    1.329623
      20Ag     1.333144    15B3u    1.409725    15B2u    1.409725
      15B1u    1.451316     9B1g    2.488432    21Ag     2.488432
       9B2g    2.501721     9B3g    2.501721    22Ag     2.504754
      10B1g    2.512645    23Ag     2.512645    10B2g    2.521216
      10B3g    2.521216    24Ag     2.527386    11B1g    2.527386
      11B2g    2.531108    11B3g    2.531108    25Ag     2.532353
      26Ag     2.592055    12B1g    2.592055    12B2g    2.614778
      12B3g    2.614778    27Ag     2.631018    13B1g    2.631018
      13B2g    2.640788    13B3g    2.640788    28Ag     2.644059
      16B3u    2.692818    16B2u    2.692818    16B1u    2.710737
       6Au     2.710737    17B2u    2.724985    17B3u    2.724985
      17B1u    2.735342     7Au     2.735342    18B3u    2.741631
      18B2u    2.741631    18B1u    2.743741    19B3u    2.984222
      19B2u    2.984222     8Au     3.011928    19B1u    3.011928
      20B3u    3.029046    20B2u    3.029046    20B1u    3.034852
      14B1g    3.067779    29Ag     3.067779    14B2g    3.098009
      14B3g    3.098009    30Ag     3.109910    21B3u    4.466227
      21B2u    4.466227    21B1u    4.503420    31Ag     5.419823
      15B1g    5.419823    15B2g    5.442453    15B3g    5.442453
      16B1g    5.458725    32Ag     5.458725    16B2g    5.468531
      16B3g    5.468531    33Ag     5.471806    34Ag     5.680875
      17B1g    5.680875    17B2g    5.699077    17B3g    5.699077
      18B1g    5.714271    35Ag     5.714271    18B2g    5.726288
      18B3g    5.726288    36Ag     5.734985    19B1g    5.734985
      19B2g    5.740251    19B3g    5.740251    37Ag     5.742014
      22B3u    5.988918    22B2u    5.988918    22B1u    6.009636
       9Au     6.009636    23B3u    6.026004    23B2u    6.026004
      10Au     6.037835    23B1u    6.037835    24B3u    6.044991
      24B2u    6.044991    24B1u    6.047386    25B3u    6.582657
      25B2u    6.582657    11Au     6.604823    25B1u    6.604823
      26B3u    6.618466    26B2u    6.618466    26B1u    6.623079
      20B1g    6.626494    38Ag     6.626494    20B2g    6.651936
      20B3g    6.651936    39Ag     6.660446    40Ag     8.429175
      21B1g   18.526951    41Ag    18.526951    21B2g   18.541577
      21B3g   18.541577    42Ag    18.546547    27B3u   19.125814
      27B2u   19.125814    27B1u   19.146210    43Ag   177.586405

    Final Occupation by Irrep:
             Ag   B1g   B2g   B3g    Au   B1u   B2u   B3u
    DOCC [     3,    0,    0,    0,    0,    1,    1,    1 ]
    SOCC [     0,    0,    0,    0,    0,    1,    0,    0 ]

  Energy converged.

  @UHF Final Energy:  -288.57827530670886

   => Energetics <=

    Nuclear Repulsion Energy =              0.0000000000000000
    One-Electron Energy =                -395.8591370518921053
    Two-Electron Energy =                 107.2808617451832447
    Total Energy =                       -288.5782753067088606

  UHF NO Occupations:
  HONO-2 :    1B1u 1.9999932
  HONO-1 :    3 Ag 1.9916837
  HONO-0 :    2B1u 1.0000000
  LUNO+0 :    4 Ag 0.0083163
  LUNO+1 :    3B1u 0.0000068
  LUNO+2 :    2B2u 0.0000004
  LUNO+3 :    2B3u 0.0000004

Properties will be evaluated at   0.000000,   0.000000,   0.000000 Bohr

Properties computed using the SCF density matrix

  Nuclear Dipole Moment: (a.u.)
     X:     0.0000      Y:     0.0000      Z:     0.0000

  Electronic Dipole Moment: (a.u.)
     X:     0.0000      Y:     0.0000      Z:     0.0000

  Dipole Moment: (a.u.)
     X:     0.0000      Y:     0.0000      Z:     0.0000     Total:     0.0000

  Dipole Moment: (Debye)
     X:     0.0000      Y:     0.0000      Z:     0.0000     Total:     0.0000

*** tstop() called on n412-071.vsc4.prov at Mon Nov  2 11:32:44 2020
Module time:
	user time   =     277.06 seconds =       4.62 minutes
	system time =       6.31 seconds =       0.11 minutes
	total time  =         88 seconds =       1.47 minutes
Total time:
	user time   =     277.06 seconds =       4.62 minutes
	system time =       6.31 seconds =       0.11 minutes
	total time  =         88 seconds =       1.47 minutes

*** tstart() called on n412-071.vsc4.prov
*** at Mon Nov  2 11:32:44 2020

	Wfn Parameters:
	--------------------
	Wavefunction         = CCSD
	Number of irreps     = 8
	Number of MOs        = 198
	Number of active MOs = 193
	AO-Basis             = NONE
	Semicanonical        = false
	Reference            = UHF
	Print Level          = 1

	IRREP	# MOs	# FZDC	# DOCC	# SOCC	# VIRT	# FZVR
	-----	-----	------	------	------	------	------
	 Ag	   43	    2	    1	    0	    40	    0
	 B1g	   21	    0	    0	    0	    21	    0
	 B2g	   21	    0	    0	    0	    21	    0
	 B3g	   21	    0	    0	    0	    21	    0
	 Au	   11	    0	    0	    0	    11	    0
	 B1u	   27	    1	    0	    1	    25	    0
	 B2u	   27	    1	    0	    0	    26	    0
	 B3u	   27	    1	    0	    0	    26	    0
	Transforming integrals...
	IWL integrals will be deleted.
	(OO|OO)...
	Presorting SO-basis two-electron integrals.
	Sorting File: SO Ints (nn|nn) nbuckets = 1
	Transforming the one-electron integrals and constructing Fock matrices
	Starting AA/AB first half-transformation.
	Sorting AA/AB half-transformed integrals.
	Starting BB first half-transformation.
	Sorting BB half-transformed integrals.
	First half integral transformation complete.
	Starting AA second half-transformation.
	Starting AB second half-transformation.
	Starting BB second half-transformation.
	Two-electron integral transformation complete.
	(OO|OV)...
	Starting AA second half-transformation.
	Starting AB second half-transformation.
	Starting BB second half-transformation.
	Two-electron integral transformation complete.
	(OO|VV)...
	Starting AA second half-transformation.
	Starting AB second half-transformation.
	Starting BB second half-transformation.
	Two-electron integral transformation complete.
	(OV|OO)...
	Starting AA/AB first half-transformation.
	Sorting AA/AB half-transformed integrals.
	Starting BB first half-transformation.
	Sorting BB half-transformed integrals.
	First half integral transformation complete.
	Starting AA second half-transformation.
	Starting AB second half-transformation.
	Starting BB second half-transformation.
	Two-electron integral transformation complete.
	(OV|OV)...
	Starting AA second half-transformation.
	Starting AB second half-transformation.
	Starting BB second half-transformation.
	Two-electron integral transformation complete.
	(OV|VV)...
	Starting AA second half-transformation.
	Starting AB second half-transformation.
	Starting BB second half-transformation.
	Two-electron integral transformation complete.
	(VV|OO)...
	Starting AA/AB first half-transformation.
	Sorting AA/AB half-transformed integrals.
	Starting BB first half-transformation.
	Sorting BB half-transformed integrals.
	First half integral transformation complete.
	Starting AA second half-transformation.
	Starting AB second half-transformation.
	Starting BB second half-transformation.
	Two-electron integral transformation complete.
	(VV|OV)...
	Starting AA second half-transformation.
	Starting AB second half-transformation.
	Starting BB second half-transformation.
	Two-electron integral transformation complete.
	(VV|VV)...
	Starting AA second half-transformation.
	Starting AB second half-transformation.
	Starting BB second half-transformation.
	Two-electron integral transformation complete.
	Frozen core energy     =   -285.17711810186910

	Size of irrep 0 of <AB|CD> integrals:      5.832 (MW) /     46.658 (MB)
	Size of irrep 1 of <AB|CD> integrals:      4.982 (MW) /     39.855 (MB)
	Size of irrep 2 of <AB|CD> integrals:      4.915 (MW) /     39.321 (MB)
	Size of irrep 3 of <AB|CD> integrals:      4.915 (MW) /     39.321 (MB)
	Size of irrep 4 of <AB|CD> integrals:      4.231 (MW) /     33.850 (MB)
	Size of irrep 5 of <AB|CD> integrals:      5.396 (MW) /     43.171 (MB)
	Size of irrep 6 of <AB|CD> integrals:      5.485 (MW) /     43.880 (MB)
	Size of irrep 7 of <AB|CD> integrals:      5.485 (MW) /     43.880 (MB)
	Total:                                    41.242 (MW) /    329.934 (MB)

	Size of irrep 0 of <ab|cd> integrals:      5.954 (MW) /     47.629 (MB)
	Size of irrep 1 of <ab|cd> integrals:      5.031 (MW) /     40.248 (MB)
	Size of irrep 2 of <ab|cd> integrals:      5.031 (MW) /     40.248 (MB)
	Size of irrep 3 of <ab|cd> integrals:      5.031 (MW) /     40.248 (MB)
	Size of irrep 4 of <ab|cd> integrals:      4.318 (MW) /     34.545 (MB)
	Size of irrep 5 of <ab|cd> integrals:      5.584 (MW) /     44.670 (MB)
	Size of irrep 6 of <ab|cd> integrals:      5.584 (MW) /     44.670 (MB)
	Size of irrep 7 of <ab|cd> integrals:      5.584 (MW) /     44.670 (MB)
	Total:                                    42.116 (MW) /    336.929 (MB)

	Size of irrep 0 of <Ab|Cd> integrals:     25.462 (MW) /    203.697 (MB)
	Size of irrep 1 of <Ab|Cd> integrals:     20.026 (MW) /    160.205 (MB)
	Size of irrep 2 of <Ab|Cd> integrals:     19.892 (MW) /    159.133 (MB)
	Size of irrep 3 of <Ab|Cd> integrals:     19.892 (MW) /    159.133 (MB)
	Size of irrep 4 of <Ab|Cd> integrals:     17.098 (MW) /    136.786 (MB)
	Size of irrep 5 of <Ab|Cd> integrals:     21.959 (MW) /    175.669 (MB)
	Size of irrep 6 of <Ab|Cd> integrals:     22.137 (MW) /    177.096 (MB)
	Size of irrep 7 of <Ab|Cd> integrals:     22.137 (MW) /    177.096 (MB)
	Total:                                   168.602 (MW) /   1348.814 (MB)

	Size of irrep 0 of <IA|BC> integrals:      0.326 (MW) /      2.611 (MB)
	Size of irrep 1 of <IA|BC> integrals:      0.143 (MW) /      1.143 (MB)
	Size of irrep 2 of <IA|BC> integrals:      0.208 (MW) /      1.667 (MB)
	Size of irrep 3 of <IA|BC> integrals:      0.208 (MW) /      1.667 (MB)
	Size of irrep 4 of <IA|BC> integrals:      0.132 (MW) /      1.053 (MB)
	Size of irrep 5 of <IA|BC> integrals:      0.302 (MW) /      2.416 (MB)
	Size of irrep 6 of <IA|BC> integrals:      0.220 (MW) /      1.761 (MB)
	Size of irrep 7 of <IA|BC> integrals:      0.220 (MW) /      1.761 (MB)
	Total:                                     1.760 (MW) /     14.080 (MB)

	Size of irrep 0 of <ia|bc> integrals:      0.203 (MW) /      1.623 (MB)
	Size of irrep 1 of <ia|bc> integrals:      0.094 (MW) /      0.754 (MB)
	Size of irrep 2 of <ia|bc> integrals:      0.094 (MW) /      0.754 (MB)
	Size of irrep 3 of <ia|bc> integrals:      0.094 (MW) /      0.754 (MB)
	Size of irrep 4 of <ia|bc> integrals:      0.046 (MW) /      0.366 (MB)
	Size of irrep 5 of <ia|bc> integrals:      0.123 (MW) /      0.983 (MB)
	Size of irrep 6 of <ia|bc> integrals:      0.123 (MW) /      0.983 (MB)
	Size of irrep 7 of <ia|bc> integrals:      0.123 (MW) /      0.983 (MB)
	Total:                                     0.900 (MW) /      7.199 (MB)

	Size of irrep 0 of <Ia|Bc> integrals:      0.333 (MW) /      2.664 (MB)
	Size of irrep 1 of <Ia|Bc> integrals:      0.143 (MW) /      1.146 (MB)
	Size of irrep 2 of <Ia|Bc> integrals:      0.210 (MW) /      1.677 (MB)
	Size of irrep 3 of <Ia|Bc> integrals:      0.210 (MW) /      1.677 (MB)
	Size of irrep 4 of <Ia|Bc> integrals:      0.132 (MW) /      1.059 (MB)
	Size of irrep 5 of <Ia|Bc> integrals:      0.309 (MW) /      2.474 (MB)
	Size of irrep 6 of <Ia|Bc> integrals:      0.221 (MW) /      1.769 (MB)
	Size of irrep 7 of <Ia|Bc> integrals:      0.221 (MW) /      1.769 (MB)
	Total:                                     1.779 (MW) /     14.235 (MB)

	Size of irrep 0 of <iA|bC> integrals:      0.202 (MW) /      1.615 (MB)
	Size of irrep 1 of <iA|bC> integrals:      0.094 (MW) /      0.752 (MB)
	Size of irrep 2 of <iA|bC> integrals:      0.094 (MW) /      0.749 (MB)
	Size of irrep 3 of <iA|bC> integrals:      0.094 (MW) /      0.749 (MB)
	Size of irrep 4 of <iA|bC> integrals:      0.045 (MW) /      0.364 (MB)
	Size of irrep 5 of <iA|bC> integrals:      0.117 (MW) /      0.937 (MB)
	Size of irrep 6 of <iA|bC> integrals:      0.122 (MW) /      0.979 (MB)
	Size of irrep 7 of <iA|bC> integrals:      0.122 (MW) /      0.979 (MB)
	Total:                                     0.890 (MW) /      7.123 (MB)

	Size of irrep 0 of tIjAb amplitudes:       0.005 (MW) /      0.040 (MB)
	Size of irrep 1 of tIjAb amplitudes:       0.000 (MW) /      0.000 (MB)
	Size of irrep 2 of tIjAb amplitudes:       0.000 (MW) /      0.000 (MB)
	Size of irrep 3 of tIjAb amplitudes:       0.000 (MW) /      0.000 (MB)
	Size of irrep 4 of tIjAb amplitudes:       0.000 (MW) /      0.000 (MB)
	Size of irrep 5 of tIjAb amplitudes:       0.005 (MW) /      0.037 (MB)
	Size of irrep 6 of tIjAb amplitudes:       0.000 (MW) /      0.000 (MB)
	Size of irrep 7 of tIjAb amplitudes:       0.000 (MW) /      0.000 (MB)
	Total:                                     0.010 (MW) /      0.078 (MB)

	Nuclear Rep. energy          =      0.00000000000000
	SCF energy                   =   -288.57827530670886
	One-electron energy          =     -4.52499660322087
	Two-electron (AA) energy     =      0.30239787702591
	Two-electron (BB) energy     =      0.00000000000000
	Two-electron (AB) energy     =      0.82144152135452
	Two-electron energy          =      1.12383939838043
	Reference energy             =   -288.57827530670954

*** tstop() called on n412-071.vsc4.prov at Mon Nov  2 11:33:59 2020
Module time:
	user time   =      21.61 seconds =       0.36 minutes
	system time =      11.90 seconds =       0.20 minutes
	total time  =         75 seconds =       1.25 minutes
Total time:
	user time   =     298.67 seconds =       4.98 minutes
	system time =      18.21 seconds =       0.30 minutes
	total time  =        163 seconds =       2.72 minutes

*** tstart() called on n412-071.vsc4.prov
*** at Mon Nov  2 11:33:59 2020

            **************************
            *                        *
            *        CCENERGY        *

      * MP2 total energy                      = -288.624036004424681
      * CCSD total energy                     = -288.638931849140761
*** Psi4 exiting successfully. Buy a developer a beer!
