                               Psi4 1.2a1.dev938

  ==> Input File <==

--------------------------------------------------------------------------
# Any line starting with the # character is a comment line
memory 250000 mb
molecule molecule{
1 2
Si          0.0000000000        0.0000000000        0.0000000000
}

set {
  reference uhf
  basis aug-cc-pv(5+d)z
  scf_type OUT_OF_CORE
  freeze_core true
}

energy('ccsd')
--------------------------------------------------------------------------

    Molecular point group: d2h
    Geometry (in Angstrom), charge = 1, multiplicity = 2:

       Center              X                  Y                   Z               Mass
    ------------   -----------------  -----------------  -----------------  -----------------
          SI          0.000000000000     0.000000000000     0.000000000000    27.976926532460

  Charge       = 1
  Multiplicity = 2
  Basis Set: AUG-CC-PV(5+D)Z
    Blend: AUG-CC-PV(5+D)Z

    Orbital Energies (a.u.)
    -----------------------

    Alpha Occupied:

       1Ag   -69.176868     2Ag    -6.514897     1B2u   -4.624553
       1B3u   -4.610697     1B1u   -4.610697     3Ag    -0.884783
       2B2u   -0.596255

    Alpha Virtual:

       2B1u   -0.262580     2B3u   -0.262580     4Ag    -0.106443
       3B2u   -0.072504     3B1u   -0.070326     3B3u   -0.070326
       1B3g   -0.048364     1B1g   -0.048364     5Ag    -0.048214
       1B2g   -0.046959     6Ag    -0.046959     4B2u    0.064056
       4B1u    0.072993     4B3u    0.072993     7Ag     0.078628
       8Ag     0.091573     2B3g    0.092683     2B1g    0.092683
       2B2g    0.103052     9Ag     0.103052     5B3u    0.107766
       5B1u    0.107766     5B2u    0.112304     1Au     0.112304
       6B1u    0.115421     6B3u    0.115421     6B2u    0.116396
      10Ag     0.492433     3B3g    0.492995     3B1g    0.492995
       3B2g    0.496267    11Ag     0.496267     4B2g    0.506257
      12Ag     0.506257     4B3g    0.513247     4B1g    0.513247
      13Ag     0.518769     5B2g    0.518769     5B3g    0.522183
       5B1g    0.522183     7B1u    0.522262     7B3u    0.522262
      14Ag     0.523349     7B2u    0.528430     2Au     0.528430
       8B1u    0.531659     8B3u    0.531659     8B2u    0.532639
       9B2u    0.644364     9B1u    0.653221     9B3u    0.653221
      15Ag     0.772229    10B1u    1.405001    10B3u    1.405001
      10B2u    1.414668     3Au     1.414668    11B1u    1.420350
      11B3u    1.420350    11B2u    1.422223     6B2g    1.460443
      16Ag     1.460443     6B3g    1.474175     6B1g    1.474175
      17Ag     1.478817    12B3u    1.549839    12B1u    1.549839
       7B2g    1.555894    18Ag     1.555894     4Au     1.560258
      12B2u    1.560258     7B3g    1.567439     7B1g    1.567439
      13B3u    1.568482    13B1u    1.568482    13B2u    1.574420
       5Au     1.574420    19Ag     1.576043     8B2g    1.576043
      14B1u    1.578007    14B3u    1.578007    14B2u    1.579206
       8B3g    1.581407     8B1g    1.581407    20Ag     1.583236
      15B1u    2.801328    15B3u    2.801328    15B2u    2.808078
      16B1u    3.220848    16B3u    3.220848    16B2u    3.236452
       6Au     3.236452    17B1u    3.245977    17B3u    3.245977
      17B2u    3.249177    21Ag     3.349521     9B2g    3.349521
       9B3g    3.368821     9B1g    3.368821    22Ag     3.373801
      23Ag     3.556405    24Ag     3.867973    10B2g    3.867973
      10B3g    3.883109    10B1g    3.883109    25Ag     3.894107
      11B2g    3.894107    11B3g    3.900784    11B1g    3.900784
      26Ag     3.903023    18B3u    3.915225    18B1u    3.915225
      18B2u    3.929706     7Au     3.929706    19B1u    3.941128
      19B3u    3.941128    19B2u    3.949372     8Au     3.949372
      20B1u    3.954353    20B3u    3.954353    20B2u    3.956019
      27Ag     9.392574    12B2g    9.392574    12B3g    9.403507
      12B1g    9.403507    28Ag     9.407231    21B1u   12.575781
      21B3u   12.575782    21B2u   12.579314    29Ag    34.095751

    Beta Occupied:

       1Ag   -69.170128     2Ag    -6.507815     1B1u   -4.607422
       1B3u   -4.607422     1B2u   -4.590837     3Ag    -0.796275

    Beta Virtual:

       2B3u   -0.251796     2B1u   -0.251796     2B2u   -0.200781
       4Ag    -0.102992     3B3u   -0.069534     3B1u   -0.069534
       3B2u   -0.061747     1B2g   -0.046424     5Ag    -0.046424
       1B1g   -0.037369     1B3g   -0.037369     6Ag    -0.033995
       4B3u    0.075401     4B1u    0.075401     7Ag     0.086997
       4B2u    0.094709     2B2g    0.104459     8Ag     0.104459
       5B1u    0.107896     5B3u    0.107896     5B2u    0.114369
       1Au     0.114369     6B3u    0.118624     6B1u    0.118624
       6B2u    0.120297     2B1g    0.125307     2B3g    0.125307
       9Ag     0.134011     3B2g    0.498005    10Ag     0.498005
       4B2g    0.506360    11Ag     0.506360     3B3g    0.515750
       3B1g    0.515750     7B1u    0.522672     7B3u    0.522672
      12Ag     0.522809     5B2g    0.522809     4B1g    0.524480
       4B3g    0.524480    13Ag     0.527930     5B1g    0.528739
       5B3g    0.528739    14Ag     0.537870     7B2u    0.539466
       2Au     0.539466     8B3u    0.549556     8B1u    0.549556
       8B2u    0.553170     9B3u    0.657990     9B1u    0.657990
       9B2u    0.696195    15Ag     0.786308    10B1u    1.405301
      10B3u    1.405301    10B2u    1.431323     3Au     1.431323
      11B3u    1.447447    11B1u    1.447447    11B2u    1.452941
       6B2g    1.461517    16Ag     1.461517     6B1g    1.491426
       6B3g    1.491426    17Ag     1.502822    12B3u    1.549730
      12B1u    1.549730     7B2g    1.555850    18Ag     1.555850
       4Au     1.563845    12B2u    1.563845    13B3u    1.575148
      13B1u    1.575148     7B3g    1.575815     7B1g    1.575815
      13B2u    1.583439     5Au     1.583439    14B3u    1.588523
      14B1u    1.588523    14B2u    1.590239    19Ag     1.590891
       8B2g    1.590891     8B1g    1.600443     8B3g    1.600443
      20Ag     1.603763    15B3u    2.805267    15B1u    2.805267
      15B2u    2.845760    16B1u    3.220840    16B3u    3.220840
       6Au     3.247754    16B2u    3.247754    17B3u    3.264433
      17B1u    3.264433    17B2u    3.270112    21Ag     3.350389
       9B2g    3.350389     9B1g    3.378914     9B3g    3.378914
      22Ag     3.384432    23Ag     3.570174    24Ag     3.867517
      10B2g    3.867517    10B3g    3.891795    10B1g    3.891795
      25Ag     3.909640    11B2g    3.909640    18B3u    3.914657
      18B1u    3.914657    11B1g    3.920576    11B3g    3.920576
      26Ag     3.924265    18B2u    3.935418     7Au     3.935418
      19B1u    3.951902    19B3u    3.951902    19B2u    3.963866
       8Au     3.963866    20B3u    3.971124    20B1u    3.971124
      20B2u    3.973556    27Ag     9.393638    12B2g    9.393638
      12B3g    9.412240    12B1g    9.412240    28Ag     9.418585
      21B1u   12.578457    21B3u   12.578457    21B2u   12.602530
      29Ag    34.101234

    Final Occupation by Irrep:
             Ag   B1g   B2g   B3g    Au   B1u   B2u   B3u
    DOCC [     3,    0,    0,    0,    0,    1,    1,    1 ]
    SOCC [     0,    0,    0,    0,    0,    0,    1,    0 ]

  Energy converged.

  @UHF Final Energy:  -288.57818267395623

   => Energetics <=

    Nuclear Repulsion Energy =              0.0000000000000000
    One-Electron Energy =                -395.8577161572125078
    Two-Electron Energy =                 107.2795334832562730
    Total Energy =                       -288.5781826739562348

  UHF NO Occupations:
  HONO-2 :    1B2u 1.9999933
  HONO-1 :    3 Ag 1.9916997
  HONO-0 :    2B2u 1.0000000
  LUNO+0 :    4 Ag 0.0083003
  LUNO+1 :    3B2u 0.0000067
  LUNO+2 :    2B1u 0.0000004
  LUNO+3 :    2B3u 0.0000004

Properties will be evaluated at   0.000000,   0.000000,   0.000000 Bohr

Properties computed using the SCF density matrix

  Nuclear Dipole Moment: (a.u.)
     X:     0.0000      Y:     0.0000      Z:     0.0000

  Electronic Dipole Moment: (a.u.)
     X:     0.0000      Y:     0.0000      Z:     0.0000

  Dipole Moment: (a.u.)
     X:     0.0000      Y:     0.0000      Z:     0.0000     Total:     0.0000

  Dipole Moment: (Debye)
     X:     0.0000      Y:     0.0000      Z:     0.0000     Total:     0.0000

*** tstop() called on cqc05 at Fri Aug 21 06:46:42 2020
Module time:
	user time   =       8.53 seconds =       0.14 minutes
	system time =       0.21 seconds =       0.00 minutes
	total time  =          8 seconds =       0.13 minutes
Total time:
	user time   =       8.53 seconds =       0.14 minutes
	system time =       0.21 seconds =       0.00 minutes
	total time  =          8 seconds =       0.13 minutes

*** tstart() called on cqc05
*** at Fri Aug 21 06:46:42 2020

	Wfn Parameters:
	--------------------
	Wavefunction         = CCSD
	Number of irreps     = 8
	Number of MOs        = 136
	Number of active MOs = 131
	AO-Basis             = NONE
	Semicanonical        = false
	Reference            = UHF
	Print Level          = 1

	IRREP	# MOs	# FZDC	# DOCC	# SOCC	# VIRT	# FZVR
	-----	-----	------	------	------	------	------
	 Ag	   29	    2	    1	    0	    26	    0
	 B1g	   12	    0	    0	    0	    12	    0
	 B2g	   12	    0	    0	    0	    12	    0
	 B3g	   12	    0	    0	    0	    12	    0
	 Au	   8	    0	    0	    0	    8	    0
	 B1u	   21	    1	    0	    0	    20	    0
	 B2u	   21	    1	    0	    1	    19	    0
	 B3u	   21	    1	    0	    0	    20	    0
	Transforming integrals...
	IWL integrals will be deleted.
	(OO|OO)...
	Presorting SO-basis two-electron integrals.
	Sorting File: SO Ints (nn|nn) nbuckets = 1
	Transforming the one-electron integrals and constructing Fock matrices
	Starting AA/AB first half-transformation.
	Sorting AA/AB half-transformed integrals.
	Starting BB first half-transformation.
	Sorting BB half-transformed integrals.
	First half integral transformation complete.
	Starting AA second half-transformation.
	Starting AB second half-transformation.
	Starting BB second half-transformation.
	Two-electron integral transformation complete.
	(OO|OV)...
	Starting AA second half-transformation.
	Starting AB second half-transformation.
	Starting BB second half-transformation.
	Two-electron integral transformation complete.
	(OO|VV)...
	Starting AA second half-transformation.
	Starting AB second half-transformation.
	Starting BB second half-transformation.
	Two-electron integral transformation complete.
	(OV|OO)...
	Starting AA/AB first half-transformation.
	Sorting AA/AB half-transformed integrals.
	Starting BB first half-transformation.
	Sorting BB half-transformed integrals.
	First half integral transformation complete.
	Starting AA second half-transformation.
	Starting AB second half-transformation.
	Starting BB second half-transformation.
	Two-electron integral transformation complete.
	(OV|OV)...
	Starting AA second half-transformation.
	Starting AB second half-transformation.
	Starting BB second half-transformation.
	Two-electron integral transformation complete.
	(OV|VV)...
	Starting AA second half-transformation.
	Starting AB second half-transformation.
	Starting BB second half-transformation.
	Two-electron integral transformation complete.
	(VV|OO)...
	Starting AA/AB first half-transformation.
	Sorting AA/AB half-transformed integrals.
	Starting BB first half-transformation.
	Sorting BB half-transformed integrals.
	First half integral transformation complete.
	Starting AA second half-transformation.
	Starting AB second half-transformation.
	Starting BB second half-transformation.
	Two-electron integral transformation complete.
	(VV|OV)...
	Starting AA second half-transformation.
	Starting AB second half-transformation.
	Starting BB second half-transformation.
	Two-electron integral transformation complete.
	(VV|VV)...
	Starting AA second half-transformation.
	Starting AB second half-transformation.
	Starting BB second half-transformation.
	Two-electron integral transformation complete.
	Frozen core energy     =   -285.17709924660340

	Size of irrep 0 of <AB|CD> integrals:      1.214 (MW) /      9.715 (MB)
	Size of irrep 1 of <AB|CD> integrals:      0.992 (MW) /      7.936 (MB)
	Size of irrep 2 of <AB|CD> integrals:      1.016 (MW) /      8.129 (MB)
	Size of irrep 3 of <AB|CD> integrals:      0.992 (MW) /      7.936 (MB)
	Size of irrep 4 of <AB|CD> integrals:      0.839 (MW) /      6.712 (MB)
	Size of irrep 5 of <AB|CD> integrals:      1.175 (MW) /      9.400 (MB)
	Size of irrep 6 of <AB|CD> integrals:      1.145 (MW) /      9.159 (MB)
	Size of irrep 7 of <AB|CD> integrals:      1.175 (MW) /      9.400 (MB)
	Total:                                     8.549 (MW) /     68.389 (MB)

	Size of irrep 0 of <ab|cd> integrals:      1.257 (MW) /     10.053 (MB)
	Size of irrep 1 of <ab|cd> integrals:      1.032 (MW) /      8.258 (MB)
	Size of irrep 2 of <ab|cd> integrals:      1.032 (MW) /      8.258 (MB)
	Size of irrep 3 of <ab|cd> integrals:      1.032 (MW) /      8.258 (MB)
	Size of irrep 4 of <ab|cd> integrals:      0.861 (MW) /      6.889 (MB)
	Size of irrep 5 of <ab|cd> integrals:      1.201 (MW) /      9.610 (MB)
	Size of irrep 6 of <ab|cd> integrals:      1.201 (MW) /      9.610 (MB)
	Size of irrep 7 of <ab|cd> integrals:      1.201 (MW) /      9.610 (MB)
	Total:                                     8.818 (MW) /     70.546 (MB)

	Size of irrep 0 of <Ab|Cd> integrals:      5.532 (MW) /     44.255 (MB)
	Size of irrep 1 of <Ab|Cd> integrals:      4.048 (MW) /     32.385 (MB)
	Size of irrep 2 of <Ab|Cd> integrals:      4.097 (MW) /     32.773 (MB)
	Size of irrep 3 of <Ab|Cd> integrals:      4.048 (MW) /     32.385 (MB)
	Size of irrep 4 of <Ab|Cd> integrals:      3.400 (MW) /     27.203 (MB)
	Size of irrep 5 of <Ab|Cd> integrals:      4.752 (MW) /     38.019 (MB)
	Size of irrep 6 of <Ab|Cd> integrals:      4.692 (MW) /     37.532 (MB)
	Size of irrep 7 of <Ab|Cd> integrals:      4.752 (MW) /     38.019 (MB)
	Total:                                    35.321 (MW) /    282.572 (MB)

	Size of irrep 0 of <IA|BC> integrals:      0.105 (MW) /      0.840 (MB)
	Size of irrep 1 of <IA|BC> integrals:      0.064 (MW) /      0.510 (MB)
	Size of irrep 2 of <IA|BC> integrals:      0.040 (MW) /      0.323 (MB)
	Size of irrep 3 of <IA|BC> integrals:      0.064 (MW) /      0.510 (MB)
	Size of irrep 4 of <IA|BC> integrals:      0.037 (MW) /      0.293 (MB)
	Size of irrep 5 of <IA|BC> integrals:      0.069 (MW) /      0.555 (MB)
	Size of irrep 6 of <IA|BC> integrals:      0.096 (MW) /      0.770 (MB)
	Size of irrep 7 of <IA|BC> integrals:      0.069 (MW) /      0.555 (MB)
	Total:                                     0.544 (MW) /      4.356 (MB)

	Size of irrep 0 of <ia|bc> integrals:      0.062 (MW) /      0.493 (MB)
	Size of irrep 1 of <ia|bc> integrals:      0.024 (MW) /      0.195 (MB)
	Size of irrep 2 of <ia|bc> integrals:      0.024 (MW) /      0.195 (MB)
	Size of irrep 3 of <ia|bc> integrals:      0.024 (MW) /      0.195 (MB)
	Size of irrep 4 of <ia|bc> integrals:      0.015 (MW) /      0.119 (MB)
	Size of irrep 5 of <ia|bc> integrals:      0.044 (MW) /      0.351 (MB)
	Size of irrep 6 of <ia|bc> integrals:      0.044 (MW) /      0.351 (MB)
	Size of irrep 7 of <ia|bc> integrals:      0.044 (MW) /      0.351 (MB)
	Total:                                     0.281 (MW) /      2.250 (MB)

	Size of irrep 0 of <Ia|Bc> integrals:      0.108 (MW) /      0.866 (MB)
	Size of irrep 1 of <Ia|Bc> integrals:      0.064 (MW) /      0.515 (MB)
	Size of irrep 2 of <Ia|Bc> integrals:      0.040 (MW) /      0.324 (MB)
	Size of irrep 3 of <Ia|Bc> integrals:      0.064 (MW) /      0.515 (MB)
	Size of irrep 4 of <Ia|Bc> integrals:      0.037 (MW) /      0.295 (MB)
	Size of irrep 5 of <Ia|Bc> integrals:      0.070 (MW) /      0.558 (MB)
	Size of irrep 6 of <Ia|Bc> integrals:      0.100 (MW) /      0.797 (MB)
	Size of irrep 7 of <Ia|Bc> integrals:      0.070 (MW) /      0.558 (MB)
	Total:                                     0.553 (MW) /      4.428 (MB)

	Size of irrep 0 of <iA|bC> integrals:      0.061 (MW) /      0.489 (MB)
	Size of irrep 1 of <iA|bC> integrals:      0.024 (MW) /      0.193 (MB)
	Size of irrep 2 of <iA|bC> integrals:      0.024 (MW) /      0.194 (MB)
	Size of irrep 3 of <iA|bC> integrals:      0.024 (MW) /      0.193 (MB)
	Size of irrep 4 of <iA|bC> integrals:      0.015 (MW) /      0.118 (MB)
	Size of irrep 5 of <iA|bC> integrals:      0.044 (MW) /      0.349 (MB)
	Size of irrep 6 of <iA|bC> integrals:      0.041 (MW) /      0.329 (MB)
	Size of irrep 7 of <iA|bC> integrals:      0.044 (MW) /      0.349 (MB)
	Total:                                     0.277 (MW) /      2.215 (MB)

	Size of irrep 0 of tIjAb amplitudes:       0.002 (MW) /      0.019 (MB)
	Size of irrep 1 of tIjAb amplitudes:       0.000 (MW) /      0.000 (MB)
	Size of irrep 2 of tIjAb amplitudes:       0.000 (MW) /      0.000 (MB)
	Size of irrep 3 of tIjAb amplitudes:       0.000 (MW) /      0.000 (MB)
	Size of irrep 4 of tIjAb amplitudes:       0.000 (MW) /      0.000 (MB)
	Size of irrep 5 of tIjAb amplitudes:       0.000 (MW) /      0.000 (MB)
	Size of irrep 6 of tIjAb amplitudes:       0.002 (MW) /      0.017 (MB)
	Size of irrep 7 of tIjAb amplitudes:       0.000 (MW) /      0.000 (MB)
	Total:                                     0.005 (MW) /      0.036 (MB)

	Nuclear Rep. energy          =      0.00000000000000
	SCF energy                   =   -288.57818267395623
	One-electron energy          =     -4.52485348269034
	Two-electron (AA) energy     =      0.30237665990072
	Two-electron (BB) energy     =      0.00000000000000
	Two-electron (AB) energy     =      0.82139339543699
	Two-electron energy          =      1.12377005533771
	Reference energy             =   -288.57818267395601

*** tstop() called on cqc05 at Fri Aug 21 06:46:46 2020
Module time:
	user time   =       2.87 seconds =       0.05 minutes
	system time =       1.48 seconds =       0.02 minutes
	total time  =          4 seconds =       0.07 minutes
Total time:
	user time   =      11.40 seconds =       0.19 minutes
	system time =       1.69 seconds =       0.03 minutes
	total time  =         12 seconds =       0.20 minutes

*** tstart() called on cqc05
*** at Fri Aug 21 06:46:46 2020

            **************************
            *                        *
            *        CCENERGY        *
            *                        *
            **************************

    Nuclear Rep. energy (wfn)     =    0.000000000000000
    SCF energy          (wfn)     = -288.578182673956235
    Reference energy    (file100) = -288.578182673956007

    Input parameters:
    -----------------
    Wave function   =     CCSD
    Reference wfn   =     UHF
    Brueckner       =     No
    Memory (Mbytes) =     250000.0
    Maxiter         =     50
    R_Convergence   =     1.0e-07
    E_Convergence   =     1.0e-06
    Restart         =     Yes
    DIIS            =     Yes
    AO Basis        =     NONE
    ABCD            =     NEW
    Cache Level     =     2
    Cache Type      =     LRU
    Print Level     =     1
    Num. of threads =     4
    # Amps to Print =     10
    Print MP2 Amps? =     No
    Analyze T2 Amps =     No
    Print Pair Ener =     No
    Local CC        =     No
    SCS-MP2         =     False
    SCSN-MP2        =     False
    SCS-CCSD        =     False

MP2 correlation energy -0.0452345160499554
                Solving CC Amplitude Equations
                ------------------------------
  Iter             Energy              RMS        T1Diag      D1Diag    New D1Diag    D2Diag
  ----     ---------------------    ---------   ----------  ----------  ----------   --------
     0        -0.045234516049956    0.000e+00    0.000000    0.000000    0.000000    0.000000
     1        -0.053864984917912    5.302e-02    0.010616    0.000000    0.000000    0.000000
     2        -0.060334495003985    2.456e-02    0.019777    0.000000    0.000000    0.000000

      * MP2 total energy                      = -288.623417190005966
      * CCSD total energy                     = -288.638652213393073
*** Psi4 exiting successfully. Buy a developer a beer!
