                               Psi4 1.2a1.dev938

  ==> Input File <==

--------------------------------------------------------------------------
# Any line starting with the # character is a comment line
memory 250000 mb
molecule molecule{
1 2
Si          0.0000000000        0.0000000000        0.0000000000
}

set {
  reference uhf
  basis aug-cc-pv(q+d)z
  scf_type OUT_OF_CORE
  freeze_core true
}

energy('ccsd')
--------------------------------------------------------------------------

    Molecular point group: d2h
    Geometry (in Angstrom), charge = 1, multiplicity = 2:

       Center              X                  Y                   Z               Mass
    ------------   -----------------  -----------------  -----------------  -----------------
          SI          0.000000000000     0.000000000000     0.000000000000    27.976926532460

  Charge       = 1
  Multiplicity = 2
  Basis Set: AUG-CC-PV(Q+D)Z
    Blend: AUG-CC-PV(Q+D)Z

    Orbital Energies (a.u.)
    -----------------------

    Alpha Occupied:

       1Ag   -69.177697     2Ag    -6.515314     1B1u   -4.623501
       1B2u   -4.611173     1B3u   -4.611173     3Ag    -0.884775
       2B1u   -0.596089

    Alpha Virtual:

       2B2u   -0.262618     2B3u   -0.262618     4Ag    -0.105355
       3B1u   -0.071919     3B2u   -0.069622     3B3u   -0.069622
       1B3g   -0.046421     1B2g   -0.046421     5Ag    -0.046316
       6Ag    -0.044757     1B1g   -0.044757     4B1u    0.081141
       4B2u    0.091243     4B3u    0.091243     7Ag     0.101406
       2B3g    0.105842     2B2g    0.105842     8Ag     0.111341
       9Ag     0.116775     2B1g    0.116775     5B3u    0.143545
       5B2u    0.143545     1Au     0.148807     5B1u    0.148807
       6B2u    0.152330     6B3u    0.152330     6B1u    0.153462
      10Ag     0.564428     3B3g    0.564548     3B2g    0.564548
      11Ag     0.566345     3B1g    0.566345     7B3u    0.689258
       7B2u    0.689258     7B1u    0.695904     2Au     0.695904
       8B2u    0.699233     8B3u    0.699233     8B1u    0.700150
      12Ag     0.770456     4B1g    0.770456     9B1u    0.777929
       4B3g    0.779558     4B2g    0.779558     5B1g    0.786151
      13Ag     0.786151     9B2u    0.787372     9B3u    0.787372
       5B3g    0.790144     5B2g    0.790144    14Ag     0.791481
      15Ag     0.968545    16Ag     1.639642     6B1g    1.639642
       6B3g    1.654878     6B2g    1.654878    17Ag     1.660081
      10B3u    2.061928    10B2u    2.061928    10B1u    2.073667
       3Au     2.073667    11B2u    2.080696    11B3u    2.080696
      11B1u    2.083034    18Ag     2.340484     7B1g    2.340484
       7B2g    2.353767     7B3g    2.353767    19Ag     2.363344
       8B1g    2.363344     8B3g    2.369122     8B2g    2.369122
      20Ag     2.371053    12B3u    4.834208    12B2u    4.834208
      12B1u    4.851125    21Ag     5.733999     9B1g    5.733999
       9B3g    5.747353     9B2g    5.747353    22Ag     5.751816
      23Ag     8.678330

    Beta Occupied:

       1Ag   -69.171871     2Ag    -6.508109     1B2u   -4.608109
       1B3u   -4.608109     1B1u   -4.591501     3Ag    -0.796349

    Beta Virtual:

       2B3u   -0.251842     2B2u   -0.251842     2B1u   -0.200793
       4Ag    -0.101742     3B2u   -0.068800     3B3u   -0.068800
       3B1u   -0.060658     1B1g   -0.044174     5Ag    -0.044174
       1B3g   -0.034531     1B2g   -0.034531     6Ag    -0.030896
       4B2u    0.093959     4B3u    0.093959     4B1u    0.115665
       7Ag     0.117492     2B1g    0.118274     8Ag     0.118274
       2B3g    0.140369     2B2g    0.140369     5B3u    0.143746
       5B2u    0.143746     9Ag     0.149911     1Au     0.152013
       5B1u    0.152013     6B2u    0.157394     6B3u    0.157394
       6B1u    0.159371     3B1g    0.567905    10Ag     0.567905
       3B3g    0.598072     3B2g    0.598072    11Ag     0.609973
       7B2u    0.689860     7B3u    0.689860     2Au     0.711832
       7B1u    0.711832     8B2u    0.724866     8B3u    0.724866
       8B1u    0.729721    12Ag     0.770585     4B1g    0.770585
       4B3g    0.784657     4B2g    0.784657     9B2u    0.792509
       9B3u    0.792509    13Ag     0.795008     5B1g    0.795008
       5B3g    0.801358     5B2g    0.801358    14Ag     0.803501
       9B1u    0.832232    15Ag     0.983223     6B1g    1.640775
      16Ag     1.640775     6B3g    1.670815     6B2g    1.670815
      17Ag     1.682365    10B2u    2.062063    10B3u    2.062063
       3Au     2.091242    10B1u    2.091242    11B2u    2.109417
      11B3u    2.109417    11B1u    2.115618    18Ag     2.340156
       7B1g    2.340156     7B3g    2.364204     7B2g    2.364204
       8B1g    2.381826    19Ag     2.381826     8B3g    2.392592
       8B2g    2.392592    20Ag     2.396215    12B2u    4.837951
      12B3u    4.837951    12B1u    4.880515     9B1g    5.734823
      21Ag     5.734823     9B3g    5.755368     9B2g    5.755368
      22Ag     5.762277    23Ag     8.687255

    Final Occupation by Irrep:
             Ag   B1g   B2g   B3g    Au   B1u   B2u   B3u
    DOCC [     3,    0,    0,    0,    0,    1,    1,    1 ]
    SOCC [     0,    0,    0,    0,    0,    1,    0,    0 ]

  Energy converged.

  @UHF Final Energy:  -288.57781747199766

   => Energetics <=

    Nuclear Repulsion Energy =              0.0000000000000000
    One-Electron Energy =                -395.8518634238467939
    Two-Electron Energy =                 107.2740459518491178
    PCM Polarization Energy =               0.0000000000000000
    Total Energy =                       -288.5778174719976619

    Alert: EFP and PCM quantities not currently incorporated into SCF psivars.
  UHF NO Occupations:
  HONO-2 :    1B1u 1.9999969
  HONO-1 :    3 Ag 1.9917230
  HONO-0 :    2B1u 1.0000000
  LUNO+0 :    4 Ag 0.0082770
  LUNO+1 :    3B1u 0.0000031
  LUNO+2 :    2B3u 0.0000004
  LUNO+3 :    2B2u 0.0000004

Properties will be evaluated at   0.000000,   0.000000,   0.000000 Bohr

Properties computed using the SCF density matrix

  Nuclear Dipole Moment: (a.u.)
     X:     0.0000      Y:     0.0000      Z:     0.0000

  Electronic Dipole Moment: (a.u.)
     X:     0.0000      Y:     0.0000      Z:     0.0000

  Dipole Moment: (a.u.)
     X:     0.0000      Y:     0.0000      Z:     0.0000     Total:     0.0000

  Dipole Moment: (Debye)
     X:     0.0000      Y:     0.0000      Z:     0.0000     Total:     0.0000

*** tstop() called on cqc05 at Thu Aug 20 22:40:55 2020
Module time:
	user time   =       1.84 seconds =       0.03 minutes
	system time =       0.05 seconds =       0.00 minutes
	total time  =          2 seconds =       0.03 minutes
Total time:
	user time   =       1.84 seconds =       0.03 minutes
	system time =       0.05 seconds =       0.00 minutes
	total time  =          2 seconds =       0.03 minutes

*** tstart() called on cqc05
*** at Thu Aug 20 22:40:55 2020

	Wfn Parameters:
	--------------------
	Wavefunction         = CCSD
	Number of irreps     = 8
	Number of MOs        = 89
	Number of active MOs = 84
	AO-Basis             = NONE
	Semicanonical        = false
	Reference            = UHF
	Print Level          = 1

	IRREP	# MOs	# FZDC	# DOCC	# SOCC	# VIRT	# FZVR
	-----	-----	------	------	------	------	------
	 Ag	   23	    2	    1	    0	    20	    0
	 B1g	   9	    0	    0	    0	    9	    0
	 B2g	   9	    0	    0	    0	    9	    0
	 B3g	   9	    0	    0	    0	    9	    0
	 Au	   3	    0	    0	    0	    3	    0
	 B1u	   12	    1	    0	    1	    10	    0
	 B2u	   12	    1	    0	    0	    11	    0
	 B3u	   12	    1	    0	    0	    11	    0
	Transforming integrals...
	IWL integrals will be deleted.
	(OO|OO)...
	Presorting SO-basis two-electron integrals.
	Sorting File: SO Ints (nn|nn) nbuckets = 1
	Transforming the one-electron integrals and constructing Fock matrices
	Starting AA/AB first half-transformation.
	Sorting AA/AB half-transformed integrals.
	Starting BB first half-transformation.
	Sorting BB half-transformed integrals.
	First half integral transformation complete.
	Starting AA second half-transformation.
	Starting AB second half-transformation.
	Starting BB second half-transformation.
	Two-electron integral transformation complete.
	(OO|OV)...
	Starting AA second half-transformation.
	Starting AB second half-transformation.
	Starting BB second half-transformation.
	Two-electron integral transformation complete.
	(OO|VV)...
	Starting AA second half-transformation.
	Starting AB second half-transformation.
	Starting BB second half-transformation.
	Two-electron integral transformation complete.
	(OV|OO)...
	Starting AA/AB first half-transformation.
	Sorting AA/AB half-transformed integrals.
	Starting BB first half-transformation.
	Sorting BB half-transformed integrals.
	First half integral transformation complete.
	Starting AA second half-transformation.
	Starting AB second half-transformation.
	Starting BB second half-transformation.
	Two-electron integral transformation complete.
	(OV|OV)...
	Starting AA second half-transformation.
	Starting AB second half-transformation.
	Starting BB second half-transformation.
	Two-electron integral transformation complete.
	(OV|VV)...
	Starting AA second half-transformation.
	Starting AB second half-transformation.
	Starting BB second half-transformation.
	Two-electron integral transformation complete.
	(VV|OO)...
	Starting AA/AB first half-transformation.
	Sorting AA/AB half-transformed integrals.
	Starting BB first half-transformation.
	Sorting BB half-transformed integrals.
	First half integral transformation complete.
	Starting AA second half-transformation.
	Starting AB second half-transformation.
	Starting BB second half-transformation.
	Two-electron integral transformation complete.
	(VV|OV)...
	Starting AA second half-transformation.
	Starting AB second half-transformation.
	Starting BB second half-transformation.
	Two-electron integral transformation complete.
	(VV|VV)...
	Starting AA second half-transformation.
	Starting AB second half-transformation.
	Starting BB second half-transformation.
	Two-electron integral transformation complete.
	Frozen core energy     =   -285.17686283403640

	Size of irrep 0 of <AB|CD> integrals:      0.208 (MW) /      1.663 (MB)
	Size of irrep 1 of <AB|CD> integrals:      0.170 (MW) /      1.358 (MB)
	Size of irrep 2 of <AB|CD> integrals:      0.163 (MW) /      1.306 (MB)
	Size of irrep 3 of <AB|CD> integrals:      0.163 (MW) /      1.306 (MB)
	Size of irrep 4 of <AB|CD> integrals:      0.121 (MW) /      0.969 (MB)
	Size of irrep 5 of <AB|CD> integrals:      0.181 (MW) /      1.445 (MB)
	Size of irrep 6 of <AB|CD> integrals:      0.190 (MW) /      1.521 (MB)
	Size of irrep 7 of <AB|CD> integrals:      0.190 (MW) /      1.521 (MB)
	Total:                                     1.386 (MW) /     11.088 (MB)

	Size of irrep 0 of <ab|cd> integrals:      0.217 (MW) /      1.737 (MB)
	Size of irrep 1 of <ab|cd> integrals:      0.172 (MW) /      1.378 (MB)
	Size of irrep 2 of <ab|cd> integrals:      0.172 (MW) /      1.378 (MB)
	Size of irrep 3 of <ab|cd> integrals:      0.172 (MW) /      1.378 (MB)
	Size of irrep 4 of <ab|cd> integrals:      0.127 (MW) /      1.020 (MB)
	Size of irrep 5 of <ab|cd> integrals:      0.198 (MW) /      1.584 (MB)
	Size of irrep 6 of <ab|cd> integrals:      0.198 (MW) /      1.584 (MB)
	Size of irrep 7 of <ab|cd> integrals:      0.198 (MW) /      1.584 (MB)
	Total:                                     1.455 (MW) /     11.643 (MB)

	Size of irrep 0 of <Ab|Cd> integrals:      1.008 (MW) /      8.064 (MB)
	Size of irrep 1 of <Ab|Cd> integrals:      0.684 (MW) /      5.471 (MB)
	Size of irrep 2 of <Ab|Cd> integrals:      0.671 (MW) /      5.366 (MB)
	Size of irrep 3 of <Ab|Cd> integrals:      0.671 (MW) /      5.366 (MB)
	Size of irrep 4 of <Ab|Cd> integrals:      0.497 (MW) /      3.976 (MB)
	Size of irrep 5 of <Ab|Cd> integrals:      0.757 (MW) /      6.055 (MB)
	Size of irrep 6 of <Ab|Cd> integrals:      0.776 (MW) /      6.209 (MB)
	Size of irrep 7 of <Ab|Cd> integrals:      0.776 (MW) /      6.209 (MB)
	Total:                                     5.840 (MW) /     46.718 (MB)

	Size of irrep 0 of <IA|BC> integrals:      0.030 (MW) /      0.239 (MB)
	Size of irrep 1 of <IA|BC> integrals:      0.010 (MW) /      0.079 (MB)
	Size of irrep 2 of <IA|BC> integrals:      0.016 (MW) /      0.129 (MB)
	Size of irrep 3 of <IA|BC> integrals:      0.016 (MW) /      0.129 (MB)
	Size of irrep 4 of <IA|BC> integrals:      0.008 (MW) /      0.067 (MB)
	Size of irrep 5 of <IA|BC> integrals:      0.025 (MW) /      0.204 (MB)
	Size of irrep 6 of <IA|BC> integrals:      0.017 (MW) /      0.140 (MB)
	Size of irrep 7 of <IA|BC> integrals:      0.017 (MW) /      0.140 (MB)
	Total:                                     0.141 (MW) /      1.126 (MB)

	Size of irrep 0 of <ia|bc> integrals:      0.020 (MW) /      0.162 (MB)
	Size of irrep 1 of <ia|bc> integrals:      0.007 (MW) /      0.060 (MB)
	Size of irrep 2 of <ia|bc> integrals:      0.007 (MW) /      0.060 (MB)
	Size of irrep 3 of <ia|bc> integrals:      0.007 (MW) /      0.060 (MB)
	Size of irrep 4 of <ia|bc> integrals:      0.002 (MW) /      0.017 (MB)
	Size of irrep 5 of <ia|bc> integrals:      0.010 (MW) /      0.078 (MB)
	Size of irrep 6 of <ia|bc> integrals:      0.010 (MW) /      0.078 (MB)
	Size of irrep 7 of <ia|bc> integrals:      0.010 (MW) /      0.078 (MB)
	Total:                                     0.074 (MW) /      0.594 (MB)

	Size of irrep 0 of <Ia|Bc> integrals:      0.031 (MW) /      0.249 (MB)
	Size of irrep 1 of <Ia|Bc> integrals:      0.010 (MW) /      0.079 (MB)
	Size of irrep 2 of <Ia|Bc> integrals:      0.016 (MW) /      0.131 (MB)
	Size of irrep 3 of <Ia|Bc> integrals:      0.016 (MW) /      0.131 (MB)
	Size of irrep 4 of <Ia|Bc> integrals:      0.008 (MW) /      0.068 (MB)
	Size of irrep 5 of <Ia|Bc> integrals:      0.027 (MW) /      0.216 (MB)
	Size of irrep 6 of <Ia|Bc> integrals:      0.018 (MW) /      0.141 (MB)
	Size of irrep 7 of <Ia|Bc> integrals:      0.018 (MW) /      0.141 (MB)
	Total:                                     0.144 (MW) /      1.156 (MB)

	Size of irrep 0 of <iA|bC> integrals:      0.020 (MW) /      0.161 (MB)
	Size of irrep 1 of <iA|bC> integrals:      0.007 (MW) /      0.060 (MB)
	Size of irrep 2 of <iA|bC> integrals:      0.007 (MW) /      0.059 (MB)
	Size of irrep 3 of <iA|bC> integrals:      0.007 (MW) /      0.059 (MB)
	Size of irrep 4 of <iA|bC> integrals:      0.002 (MW) /      0.017 (MB)
	Size of irrep 5 of <iA|bC> integrals:      0.009 (MW) /      0.070 (MB)
	Size of irrep 6 of <iA|bC> integrals:      0.010 (MW) /      0.078 (MB)
	Size of irrep 7 of <iA|bC> integrals:      0.010 (MW) /      0.078 (MB)
	Total:                                     0.072 (MW) /      0.580 (MB)

	Size of irrep 0 of tIjAb amplitudes:       0.001 (MW) /      0.008 (MB)
	Size of irrep 1 of tIjAb amplitudes:       0.000 (MW) /      0.000 (MB)
	Size of irrep 2 of tIjAb amplitudes:       0.000 (MW) /      0.000 (MB)
	Size of irrep 3 of tIjAb amplitudes:       0.000 (MW) /      0.000 (MB)
	Size of irrep 4 of tIjAb amplitudes:       0.000 (MW) /      0.000 (MB)
	Size of irrep 5 of tIjAb amplitudes:       0.001 (MW) /      0.007 (MB)
	Size of irrep 6 of tIjAb amplitudes:       0.000 (MW) /      0.000 (MB)
	Size of irrep 7 of tIjAb amplitudes:       0.000 (MW) /      0.000 (MB)
	Total:                                     0.002 (MW) /      0.015 (MB)

	Nuclear Rep. energy          =      0.00000000000000
	SCF energy                   =   -288.57781747199766
	One-electron energy          =     -4.52469601957204
	Two-electron (AA) energy     =      0.30236344836662
	Two-electron (BB) energy     =      0.00000000000000
	Two-electron (AB) energy     =      0.82137793324411
	Two-electron energy          =      1.12374138161073
	Reference energy             =   -288.57781747199772

*** tstop() called on cqc05 at Thu Aug 20 22:40:56 2020
Module time:
	user time   =       0.65 seconds =       0.01 minutes
	system time =       0.33 seconds =       0.01 minutes
	total time  =          1 seconds =       0.02 minutes
Total time:
	user time   =       2.49 seconds =       0.04 minutes
	system time =       0.38 seconds =       0.01 minutes
	total time  =          3 seconds =       0.05 minutes

*** tstart() called on cqc05
*** at Thu Aug 20 22:40:56 2020

            **************************
            *                        *
            *        CCENERGY        *
            *                        *
            **************************

    Nuclear Rep. energy (wfn)     =    0.000000000000000
    SCF energy          (wfn)     = -288.577817471997662
    Reference energy    (file100) = -288.577817471997719

    Input parameters:
    -----------------
    Wave function   =     CCSD
    Reference wfn   =     UHF
    Brueckner       =     No
    Memory (Mbytes) =     250000.0
    Maxiter         =     50
    R_Convergence   =     1.0e-07
    E_Convergence   =     1.0e-06
    Restart         =     Yes
    DIIS            =     Yes
    AO Basis        =     NONE
    ABCD            =     NEW
    Cache Level     =     2
    Cache Type      =     LRU
    Print Level     =     1
    Num. of threads =     4
    # Amps to Print =     10
    Print MP2 Amps? =     No
    Analyze T2 Amps =     No
    Print Pair Ener =     No
    Local CC        =     No
    SCS-MP2         =     False
    SCSN-MP2        =     False
    SCS-CCSD        =     False

MP2 correlation energy -0.0440156837414604
                Solving CC Amplitude Equations
                ------------------------------
  Iter             Energy              RMS        T1Diag      D1Diag    New D1Diag    D2Diag
  ----     ---------------------    ---------   ----------  ----------  ----------   --------
     0        -0.044015683741460    0.000e+00    0.000000    0.000000    0.000000    0.000000
     1        -0.053414412055064    5.359e-02    0.010284    0.000000    0.000000    0.000000
     2        -0.059716676190742    2.452e-02    0.019531    0.000000    0.000000    0.000000
     3        -0.059867612196877    4.271e-03    0.020985    0.000000    0.000000    0.000000
     4        -0.059974011706676    8.226e-04    0.021123    0.000000    0.000000    0.000000
     5        -0.059956999065079    1.813e-04    0.021082    0.000000    0.000000    0.000000
     6        -0.059958481300268    3.988e-05    0.021077    0.000000    0.000000    0.000000
     7        -0.059959069860235    1.153e-05    0.021078    0.000000    0.000000    0.000000
     8        -0.059958774446211    3.158e-06    0.021078    0.000000    0.000000    0.000000
     9        -0.059958824203769    5.891e-07    0.021079    0.000000    0.000000    0.000000
    10        -0.059958818651614    1.467e-07    0.021079    0.000000    0.000000    0.000000
    11        -0.059958818527329    4.049e-08    0.021079    0.000000    0.000000    0.000000
    11        -0.059958818527329    4.049e-08    0.021079    0.000000    0.000000    0.000000

    Iterations converged.

    CCSD corr. energy   =   -0.059958818527329
    PPL corr. energy    =    0.025831620903766
    OS PPL corr. energy =    0.025020837240540
    SS PPL corr. energy =    0.000810783663226
    Largest TIA Amplitudes:
              0   1         0.0187854251
              0   3         0.0167325743
              0   4        -0.0164650203
              0   6        -0.0115274828
              0   0         0.0050648258
              1  51         0.0045606686
              1  55         0.0044183295
              1  53         0.0039752785
              1  50        -0.0030858271
              1  56        -0.0028740343

      * MP2 total energy                      = -288.621833155739182
      * CCSD total energy                     = -288.637776290525039
*** Psi4 exiting successfully. Buy a developer a beer!
