                               Psi4 1.2a1.dev939

  ==> Input File <==

--------------------------------------------------------------------------
# Any line starting with the # character is a comment line

memory 32000 mb

molecule molecule {
-1 1
S          0.0000000000        0.0000000000        0.0408346674
H          0.0000000000        0.0000000000       -1.2988465945
}

set {
  reference rhf
  basis aug-cc-pv(T+d)z
  scf_type OUT_OF_CORE
  freeze_core true
}

energy('ccsd')
--------------------------------------------------------------------------

    Molecular point group: c2v

    Geometry (in Angstrom), charge = -1, multiplicity = 1:

       Center              X                  Y                   Z               Mass
    ------------   -----------------  -----------------  -----------------  -----------------
           S          0.000000000000     0.000000000000     0.040939010525    31.972070999000
           H          0.000000000000     0.000000000000    -1.298742251375     1.007825032070

  Charge       = -1
  Multiplicity = 1
  Basis Set: AUG-CC-PV(T+D)Z
    Blend: AUG-CC-PV(T+D)Z

    Orbital Energies (a.u.)
    -----------------------

    Doubly Occupied:

       1A1   -91.663859     2A1    -8.664485     3A1    -6.346257
       1B1    -6.344418     1B2    -6.344418     4A1    -0.645211
       5A1    -0.254654     2B1    -0.094808     2B2    -0.094808

  @RHF Final Energy:  -398.14628360137698

   => Energetics <=

    Nuclear Repulsion Energy =              6.3200371448294561
    One-Electron Energy =                -568.0268059028436483
    Two-Electron Energy =                 163.5604851566372133
    Total Energy =                       -398.1462836013769220
      * MP2 total energy                      = -398.346581490222604
      * CCSD total energy                     = -398.364839272613096
*** Psi4 exiting successfully. Buy a developer a beer!
