                               Psi4 1.2a1.dev939

  ==> Input File <==

--------------------------------------------------------------------------
# Any line starting with the # character is a comment line

memory 32000 mb

molecule molecule {
-1 1
S          0.0000000000        0.0000000000        0.0408346674
H          0.0000000000        0.0000000000       -1.2988465945
}

set {
  reference rhf
  basis aug-cc-pv(D+d)z
  scf_type OUT_OF_CORE
  freeze_core true
}

energy('ccsd')
--------------------------------------------------------------------------

    Molecular point group: c2v

    Geometry (in Angstrom), charge = -1, multiplicity = 1:

       Center              X                  Y                   Z               Mass
    ------------   -----------------  -----------------  -----------------  -----------------
           S          0.000000000000     0.000000000000     0.040939010525    31.972070999000
           H          0.000000000000     0.000000000000    -1.298742251375     1.007825032070

  Charge       = -1
  Multiplicity = 1
  Basis Set: AUG-CC-PV(D+D)Z
    Blend: AUG-CC-PV(D+D)Z

    Orbital Energies (a.u.)
    -----------------------

    Doubly Occupied:

       1A1   -91.668544     2A1    -8.667736     3A1    -6.350446
       1B2    -6.347546     1B1    -6.347546     4A1    -0.646430
       5A1    -0.255070     2B1    -0.094432     2B2    -0.094432

  @RHF Final Energy:  -398.13560638457318

   => Energetics <=

    Nuclear Repulsion Energy =              6.3200371448294561
    One-Electron Energy =                -567.9669238348643603
    Two-Electron Energy =                 163.5112803054616677
    Total Energy =                       -398.1356063845731796
      * MP2 total energy                      = -398.297052423636671
      * CCSD total energy                     = -398.314799644264667
*** Psi4 exiting successfully. Buy a developer a beer!
