                               Psi4 1.2a1.dev939

  ==> Input File <==

--------------------------------------------------------------------------
# Any line starting with the # character is a comment line
memory 250000 mb
molecule molecule{
-1 1
S          0.0000000000        0.0000000000        0.0408346674
H          0.0000000000        0.0000000000       -1.2988465945
}

set {
  reference rhf
  basis aug-cc-pv(6+d)z
  scf_type OUT_OF_CORE
  freeze_core true
}

energy('ccsd')
--------------------------------------------------------------------------

    Molecular point group: c2v

    Geometry (in Angstrom), charge = -1, multiplicity = 1:

       Center              X                  Y                   Z               Mass
    ------------   -----------------  -----------------  -----------------  -----------------
           S          0.000000000000     0.000000000000     0.040939010525    31.972070999000
           H          0.000000000000     0.000000000000    -1.298742251375     1.007825032070

  Charge       = -1
  Multiplicity = 1
  Basis Set: AUG-CC-PV(6+D)Z
    Blend: AUG-CC-PV(6+D)Z

    Orbital Energies (a.u.)
    -----------------------

    Doubly Occupied:

       1A1   -91.663483     2A1    -8.664227     3A1    -6.346036
       1B2    -6.344651     1B1    -6.344651     4A1    -0.645154
       5A1    -0.254817     2B1    -0.094914     2B2    -0.094914

  @RHF Final Energy:  -398.14988376247487

   => Energetics <=

    Nuclear Repulsion Energy =              6.3200371448294561
    One-Electron Energy =                -568.0341430854848568
    Two-Electron Energy =                 163.5642221781805006
    PCM Polarization Energy =               0.0000000000000000
    Total Energy =                       -398.1498837624748717
      * MP2 total energy                      = -398.374225564497863
      * CCSD total energy                     = -398.386186287975079
*** Psi4 exiting successfully. Buy a developer a beer!
