                               Psi4 1.2a1.dev939

  ==> Input File <==

--------------------------------------------------------------------------
# Any line starting with the # character is a comment line

memory 32000 mb

molecule molecule {
-1 1
S          0.0000000000        0.0000000000        0.0408346674
H          0.0000000000        0.0000000000       -1.2988465945
}

set {
  reference rhf
  basis aug-cc-pv(Q+d)z
  scf_type OUT_OF_CORE
  freeze_core true
}

energy('ccsd')
--------------------------------------------------------------------------

    Molecular point group: c2v

    Geometry (in Angstrom), charge = -1, multiplicity = 1:

       Center              X                  Y                   Z               Mass
    ------------   -----------------  -----------------  -----------------  -----------------
           S          0.000000000000     0.000000000000     0.040939010525    31.972070999000
           H          0.000000000000     0.000000000000    -1.298742251375     1.007825032070

  Charge       = -1
  Multiplicity = 1
  Basis Set: AUG-CC-PV(Q+D)Z
    Blend: AUG-CC-PV(Q+D)Z

    Orbital Energies (a.u.)
    -----------------------

    Doubly Occupied:

       1A1   -91.663016     2A1    -8.664160     3A1    -6.346126
       1B1    -6.344442     1B2    -6.344442     4A1    -0.645165
       5A1    -0.254735     2B2    -0.094872     2B1    -0.094872

  @RHF Final Energy:  -398.14923169900482

   => Energetics <=

    Nuclear Repulsion Energy =              6.3200371448294561
    One-Electron Energy =                -568.0348777349689726
    Two-Electron Energy =                 163.5656088911346728
    Total Energy =                       -398.1492316990048153
      * MP2 total energy                      = -398.364105797705975
      * CCSD total energy                     = -398.379946072753057
*** Psi4 exiting successfully. Buy a developer a beer!
