                               Psi4 1.2a1.dev939

  ==> Input File <==

--------------------------------------------------------------------------
# Any line starting with the # character is a comment line

memory 32000 mb

molecule molecule {
-1 1
S          0.0000000000        0.0000000000        0.0408346674
H          0.0000000000        0.0000000000       -1.2988465945
}

set {
  reference rhf

  basis aug-cc-pv(5+d)z
  scf_type OUT_OF_CORE
  freeze_core true
}

energy('ccsd')
--------------------------------------------------------------------------

    Molecular point group: c2v

    Geometry (in Angstrom), charge = -1, multiplicity = 1:

       Center              X                  Y                   Z               Mass
    ------------   -----------------  -----------------  -----------------  -----------------
           S          0.000000000000     0.000000000000     0.040939010525    31.972070999000
           H          0.000000000000     0.000000000000    -1.298742251375     1.007825032070

  Charge       = -1
  Multiplicity = 1
  Basis Set: AUG-CC-PV(5+D)Z
    Blend: AUG-CC-PV(5+D)Z

    Orbital Energies (a.u.)
    -----------------------

    Doubly Occupied:

       1A1   -91.663413     2A1    -8.664236     3A1    -6.346082
       1B2    -6.344599     1B1    -6.344599     4A1    -0.645154
       5A1    -0.254792     2B2    -0.094895     2B1    -0.094895

  @RHF Final Energy:  -398.14974270840219

   => Energetics <=

    Nuclear Repulsion Energy =              6.3200371448294561
    One-Electron Energy =                -568.0342294936609733
    Two-Electron Energy =                 163.5644496404292738
    Total Energy =                       -398.1497427084021865
      * MP2 total energy                      = -398.371007359286864
      * CCSD total energy                     = -398.384395131951521
*** Psi4 exiting successfully. Buy a developer a beer!
