                               Psi4 1.2a1.dev939

  ==> Input File <==

--------------------------------------------------------------------------
# Any line starting with the # character is a comment line

memory 32000 mb

molecule molecule {
0 1
P          0.0000000000        0.0000000000        0.0676721068
H          1.1867955809        0.0000000000       -0.6931826617
H         -0.5933977905        1.0277951222       -0.6931826617
H         -0.5933977905       -1.0277951222       -0.6931826617
}

set {
  reference rhf
  basis aug-cc-pv(Q+d)z
  scf_type OUT_OF_CORE
  freeze_core true
}

energy('ccsd')
--------------------------------------------------------------------------

    Molecular point group: cs

    Geometry (in Angstrom), charge = 0, multiplicity = 1:

       Center              X                  Y                   Z               Mass
    ------------   -----------------  -----------------  -----------------  -----------------
           P         -0.000000000001    -0.067665071223     0.000000000000    30.973761629000
           H         -0.593397790457     0.693189697277     1.027795122191     1.007825032070
           H         -0.593397790457     0.693189697277    -1.027795122191     1.007825032070
           H          1.186795580959     0.693189697277     0.000000000000     1.007825032070

  Charge       = 0
  Multiplicity = 1
  Basis Set: AUG-CC-PV(Q+D)Z
    Blend: AUG-CC-PV(Q+D)Z

    Orbital Energies (a.u.)
    -----------------------

    Doubly Occupied:

       1Ap   -79.941141     2Ap    -7.485018     3Ap    -5.378812
       1App   -5.378812     4Ap    -5.377821     5Ap    -0.856391
       2App   -0.523551     6Ap    -0.523551     7Ap    -0.387679

  @RHF Final Energy:  -342.49400282854839

   => Energetics <=

    Nuclear Repulsion Energy =             17.6639770973315891
    One-Electron Energy =                -508.6104101249232485
    Two-Electron Energy =                 148.4524301990432207
    Total Energy =                       -342.4940028285484459
      * MP2 total energy                      = -342.677664947321887
      * CCSD total energy                     = -342.703109942498202
*** Psi4 exiting successfully. Buy a developer a beer!
