                               Psi4 1.2a1.dev939

  ==> Input File <==

--------------------------------------------------------------------------
# Any line starting with the # character is a comment line
memory 250000 mb
molecule molecule{
0 1
P          0.0000000000        0.0000000000        0.0676721068
H          1.1867955809        0.0000000000       -0.6931826617
H         -0.5933977905        1.0277951222       -0.6931826617
H         -0.5933977905       -1.0277951222       -0.6931826617
}

set {
  reference rhf
  basis aug-cc-pv(6+d)z
  scf_type OUT_OF_CORE
  freeze_core true
}

energy('ccsd')
--------------------------------------------------------------------------

    Molecular point group: cs

    Geometry (in Angstrom), charge = 0, multiplicity = 1:

       Center              X                  Y                   Z               Mass
    ------------   -----------------  -----------------  -----------------  -----------------
           P         -0.000000000001    -0.067665071223     0.000000000000    30.973761629000
           H         -0.593397790457     0.693189697277     1.027795122191     1.007825032070
           H         -0.593397790457     0.693189697277    -1.027795122191     1.007825032070
           H          1.186795580959     0.693189697277     0.000000000000     1.007825032070

  Charge       = 0
  Multiplicity = 1
  Basis Set: AUG-CC-PV(6+D)Z
    Blend: AUG-CC-PV(6+D)Z

    Orbital Energies (a.u.)
    -----------------------

    Doubly Occupied:

       1Ap   -79.941661     2Ap    -7.484974     3Ap    -5.378708
       1App   -5.378708     4Ap    -5.378032     5Ap    -0.856281
       2App   -0.523566     6Ap    -0.523566     7Ap    -0.387747

  @RHF Final Energy:  -342.49488418064919

   => Energetics <=

    Nuclear Repulsion Energy =             17.6639770973315891
    One-Electron Energy =                -508.6112403993346902
    Two-Electron Energy =                 148.4523791213539141
    Total Energy =                       -342.4948841806491373
      * MP2 total energy                      = -342.684875021792834
      * CCSD total energy                     = -342.707490715766824
*** Psi4 exiting successfully. Buy a developer a beer!
