                               Psi4 1.4a3.dev88

  ==> Input File <==

--------------------------------------------------------------------------
# Any line starting with the # character is a comment line
memory 250000 mb
molecule molecule{
0 1
O          0.0000000000        0.0000000000       -0.6054235579
C          0.0000000000        0.0000000000        0.6074682248
H          0.0000000000        0.9360130303        1.1856424111
H          0.0000000000       -0.9360130303        1.1856424111
}

set {
  reference rhf
  basis aug-cc-pV(6+d)Z
  scf_type OUT_OF_CORE
  freeze_core true
}

energy('ccsd(t)')
--------------------------------------------------------------------------

    Molecular point group: c2v

    Geometry (in Angstrom), charge = 0, multiplicity = 1:

       Center              X                  Y                   Z               Mass
    ------------   -----------------  -----------------  -----------------  -----------------
         O           -0.000000000000     0.000000000000    -0.605282300400    15.994914619570
         C           -0.000000000000     0.000000000000     0.607609482300    12.000000000000
         H           -0.000000000000     0.936013030300     1.185783668600     1.007825032230
         H            0.000000000000    -0.936013030300     1.185783668600     1.007825032230

  Charge       = 0
  Multiplicity = 1
  Basis Set: AUG-CC-PV(6+D)Z
    Blend: AUG-CC-PV(6+D)Z

    Orbital Energies [Eh]
    ---------------------

    Doubly Occupied:

       1A1   -20.575736     2A1   -11.342079     3A1    -1.401107
       4A1    -0.872685     1B2    -0.694527     5A1    -0.650662
       1B1    -0.534324     2B2    -0.445090

  @RHF Final Energy:  -113.92244125664578

   => Energetics <=

    Nuclear Repulsion Energy =             31.1862905037780251
    One-Electron Energy =                -217.1850449232218239
    Two-Electron Energy =                  72.0763131627980158
    Total Energy =                       -113.9224412566457829

  Dipole Moment: [D]
     X:     0.0000      Y:     0.0000      Z:     2.8905     Total:     2.8905

      * MP2 total energy                      = -114.364946322479270
      * CCSD total energy                     = -114.365359691211580
      * CCSD(T) total energy                  = -114.384799174567732
*** Psi4 exiting successfully. Buy a developer a beer!
