                               Psi4 1.4a3.dev88

  ==> Input File <==

--------------------------------------------------------------------------
# Any line starting with the # character is a comment line
memory 250000 mb
molecule molecule{
0 1
O          0.0000000000        0.0000000000       -0.6054235579
C          0.0000000000        0.0000000000        0.6074682248
H          0.0000000000        0.9360130303        1.1856424111
H          0.0000000000       -0.9360130303        1.1856424111
}

set {
  reference rhf
  basis aug-cc-pv(q+d)z
  scf_type OUT_OF_CORE
  freeze_core true
}

energy('ccsd(t)')
--------------------------------------------------------------------------

    Molecular point group: c2v

    Geometry (in Angstrom), charge = 0, multiplicity = 1:

       Center              X                  Y                   Z               Mass
    ------------   -----------------  -----------------  -----------------  -----------------
         O           -0.000000000000     0.000000000000    -0.605282300400    15.994914619570
         C           -0.000000000000     0.000000000000     0.607609482300    12.000000000000
         H           -0.000000000000     0.936013030300     1.185783668600     1.007825032230
         H            0.000000000000    -0.936013030300     1.185783668600     1.007825032230

  Charge       = 0
  Multiplicity = 1
  Basis Set: AUG-CC-PV(Q+D)Z
    Blend: AUG-CC-PV(Q+D)Z

    Orbital Energies [Eh]
    ---------------------

    Doubly Occupied:

       1A1   -20.576527     2A1   -11.342353     3A1    -1.401382
       4A1    -0.872759     1B2    -0.694513     5A1    -0.650672
       1B1    -0.534331     2B2    -0.445037

  @RHF Final Energy:  -113.92051553009735

   => Energetics <=

    Nuclear Repulsion Energy =             31.1862905037780251
    One-Electron Energy =                -217.1784635007743134
    Two-Electron Energy =                  72.0716574668989409
    Total Energy =                       -113.9205155300973473

  Dipole Moment: [D]
     X:     0.0000      Y:     0.0000      Z:     2.8908     Total:     2.8908

      * MP2 total energy                      = -114.348647300492246
      * CCSD total energy                     = -114.353525468122513
      * CCSD(T) total energy                  = -114.372337861351511
*** Psi4 exiting successfully. Buy a developer a beer!
