                               Psi4 1.4a3.dev88

  ==> Input File <==

--------------------------------------------------------------------------
# Any line starting with the # character is a comment line
memory 250000 mb
molecule molecule{
0 1
O          0.0000000000        0.0000000000       -0.6054235579
C          0.0000000000        0.0000000000        0.6074682248
H          0.0000000000        0.9360130303        1.1856424111
H          0.0000000000       -0.9360130303        1.1856424111
}

set {
  reference rhf
  basis aug-cc-pV(d+d)Z
  scf_type OUT_OF_CORE
  freeze_core true
}

energy('ccsd(t)')
--------------------------------------------------------------------------

    Molecular point group: c2v

    Geometry (in Angstrom), charge = 0, multiplicity = 1:

       Center              X                  Y                   Z               Mass
    ------------   -----------------  -----------------  -----------------  -----------------
         O           -0.000000000000     0.000000000000    -0.605282300400    15.994914619570
         C           -0.000000000000     0.000000000000     0.607609482300    12.000000000000
         H           -0.000000000000     0.936013030300     1.185783668600     1.007825032230
         H            0.000000000000    -0.936013030300     1.185783668600     1.007825032230

  Charge       = 0
  Multiplicity = 1
  Basis Set: AUG-CC-PV(D+D)Z
    Blend: AUG-CC-PV(D+D)Z

    Orbital Energies [Eh]
    ---------------------

    Doubly Occupied:

       1A1   -20.589184     2A1   -11.353149     3A1    -1.407296
       4A1    -0.873785     1B2    -0.694381     5A1    -0.651961
       1B1    -0.534653     2B2    -0.443608

  @RHF Final Energy:  -113.88464712481334

   => Energetics <=

    Nuclear Repulsion Energy =             31.1862905037780251
    One-Electron Energy =                -217.0458445703924610
    Two-Electron Energy =                  71.9749069418010947
    Total Energy =                       -113.8846471248133412

  Dipole Moment: [D]
     X:     0.0000      Y:     0.0000      Z:     2.9005     Total:     2.9005

      * MP2 total energy                      = -114.218528431792834
      * CCSD total energy                     = -114.232682663610987
      * CCSD(T) total energy                  = -114.244773631563817
*** Psi4 exiting successfully. Buy a developer a beer!
