                               Psi4 1.2a1.dev939

  ==> Input File <==

--------------------------------------------------------------------------
# Any line starting with the # character is a comment line
memory 250000 mb
molecule molecule{
1 2
N          0.0000001497        0.0000000000        0.0000000009
H         -0.0000006933        0.0000000000       -1.0198269489
H         -0.0000006933        0.8831960411        0.5099134935
H         -0.0000006933       -0.8831960411        0.5099134431
}

set {
  reference uhf
  basis aug-cc-pv(6+d)z
  scf_type OUT_OF_CORE
  freeze_core true
}

energy('ccsd')
--------------------------------------------------------------------------

    Molecular point group: c1

    Geometry (in Angstrom), charge = 1, multiplicity = 2:

       Center              X                  Y                   Z               Mass
    ------------   -----------------  -----------------  -----------------  -----------------
           N          0.000000149695     0.000000000000     0.000000000888    14.003074004780
           H         -0.000000693305     0.000000000000    -1.019826948912     1.007825032070
           H         -0.000000693305     0.883196041100     0.509913493488     1.007825032070
           H         -0.000000693305    -0.883196041100     0.509913443088     1.007825032070

  Charge       = 1
  Multiplicity = 2
  Basis Set: AUG-CC-PV(6+D)Z
    Blend: AUG-CC-PV(6+D)Z

    Orbital Energies (a.u.)
    -----------------------

    Alpha Occupied:

       1A    -16.005692     2A     -1.586518     3A     -1.060960
       4A     -1.060960     5A     -0.921897

    Alpha Virtual:

       6A     -0.151938     7A     -0.097408     8A     -0.097408
       9A     -0.086010    10A     -0.052965    11A     -0.046938
      12A     -0.046938    13A     -0.026814    14A     -0.026814
      15A     -0.019288    16A     -0.014957    17A     -0.014957
      18A      0.032939    19A      0.059537    20A      0.061425
      21A      0.061425    22A      0.074648    23A      0.077152
      24A      0.077152    25A      0.100412    26A      0.101030
      27A      0.101030    28A      0.144139    29A      0.144139
      30A      0.158544    31A      0.184882    32A      0.205723
      33A      0.205723    34A      0.252317    35A      0.252317
      36A      0.282214    37A      0.282214    38A      0.287238
      39A      0.300588    40A      0.320390    41A      0.326555
      42A      0.326555    43A      0.330489    44A      0.334656
      45A      0.334656    46A      0.342063    47A      0.358557
      48A      0.358557    49A      0.380741    50A      0.380741
      51A      0.423581    52A      0.431536    53A      0.498313
      54A      0.498313    55A      0.530968    56A      0.536352
      57A      0.536352    58A      0.598449    59A      0.612713
      60A      0.612713    61A      0.635799    62A      0.635799
      63A      0.684422    64A      0.705126    65A      0.705126
      66A      0.712083    67A      0.768340    68A      0.786911
      69A      0.815580    70A      0.815580    71A      0.836614
      72A      0.836614    73A      0.862741    74A      0.864403
      75A      0.864403    76A      0.904428    77A      0.904428
      78A      0.912581    79A      0.913398    80A      0.919344
      81A      0.919344    82A      0.974650    83A      0.974650
      84A      0.977742    85A      0.977742    86A      0.979209
      87A      1.002209    88A      1.080851    89A      1.103273
      90A      1.103273    91A      1.106943    92A      1.138915
      93A      1.138915    94A      1.211802    95A      1.233004
      96A      1.234906    97A      1.234906    98A      1.295296
      99A      1.295296   100A      1.387169   101A      1.455515
     102A      1.455515   103A      1.589607   104A      1.596955
     105A      1.620668   106A      1.620668   107A      1.622330
     108A      1.622330   109A      1.667549   110A      1.667549
     111A      1.688959   112A      1.696252   113A      1.701723
     114A      1.720617   115A      1.720617   116A      1.740569
     117A      1.777000   118A      1.777000   119A      1.803124
     120A      1.880016   121A      1.880016   122A      1.904860
     123A      1.928868   124A      1.928868   125A      1.955757
     126A      1.955757   127A      1.975894   128A      2.055681
     129A      2.055681   130A      2.093066   131A      2.093066
     132A      2.145327   133A      2.161146   134A      2.161146
     135A      2.172421   136A      2.181651   137A      2.181651
     138A      2.237638   139A      2.261102   140A      2.289799
     141A      2.289799   142A      2.305155   143A      2.317545
     144A      2.317545   145A      2.334278   146A      2.369902
     147A      2.370494   148A      2.370494   149A      2.380038
     150A      2.422114   151A      2.422114   152A      2.438634
     153A      2.438634   154A      2.482938   155A      2.482938
     156A      2.524628   157A      2.539138   158A      2.551138
     159A      2.596067   160A      2.596067   161A      2.638342
     162A      2.638342   163A      2.765039   164A      2.859405
     165A      2.859405   166A      2.936479   167A      2.997213
     168A      2.997213   169A      3.002647   170A      3.002647
     171A      3.037969   172A      3.079418   173A      3.146039
     174A      3.209260   175A      3.209260   176A      3.294852
     177A      3.461024   178A      3.506559   179A      3.506559
     180A      3.549976   181A      3.549976   182A      3.635022
     183A      3.635022   184A      3.639711   185A      3.689236
     186A      3.747108   187A      3.747108   188A      3.792486
     189A      3.798354   190A      3.807447   191A      3.807447
     192A      3.822167   193A      3.822167   194A      3.872410
     195A      3.886910   196A      3.886910   197A      4.052340
     198A      4.061830   199A      4.061830   200A      4.128292
     201A      4.128292   202A      4.136337   203A      4.136337
     204A      4.137652   205A      4.146689   206A      4.291245
     207A      4.291245   208A      4.319497   209A      4.319497
     210A      4.379885   211A      4.393537   212A      4.393537
     213A      4.414508   214A      4.414508   215A      4.430820
     216A      4.525112   217A      4.545415   218A      4.555800
     219A      4.555800   220A      4.556165   221A      4.576367
     222A      4.634953   223A      4.716453   224A      4.716453
     225A      4.751806   226A      4.751806   227A      4.801688
     228A      4.807154   229A      4.807154   230A      4.854569
     231A      4.854569   232A      4.880182   233A      4.880182
     234A      4.926966   235A      4.932844   236A      4.932844
     237A      4.935239   238A      4.949211   239A      5.029510
     240A      5.034844   241A      5.127953   242A      5.127953
     243A      5.147630   244A      5.147630   245A      5.256825
     246A      5.290676   247A      5.290676   248A      5.304815
     249A      5.335577   250A      5.335577   251A      5.390320
     252A      5.390321   253A      5.487026   254A      5.495997
     255A      5.498039   256A      5.498039   257A      5.554534
     258A      5.554534   259A      5.627046   260A      5.663453
     261A      5.663453   262A      5.854500   263A      5.860707
     264A      5.868183   265A      5.868183   266A      5.911312
     267A      5.911312   268A      5.943056   269A      5.943056
     270A      6.022472   271A      6.142713   272A      6.152930
     273A      6.342747   274A      6.342747   275A      6.635431
     276A      6.635431   277A      6.637858   278A      6.706031
     279A      6.749550   280A      6.749550   281A      6.758596
     282A      7.144899   283A      7.144899   284A      7.152532
     285A      7.152532   286A      7.307030   287A      7.323744
     288A      7.333652   289A      7.459197   290A      7.459197
     291A      7.506486   292A      7.577768   293A      7.577768
     294A      7.644216   295A      7.662641   296A      7.662641
     297A      7.923708   298A      7.923708   299A      8.029848
     300A      8.029848   301A      8.107514   302A      8.110231
     303A      8.110231   304A      8.174963   305A      8.193383
     306A      8.193383   307A      8.218562   308A      8.375405
     309A      8.564049   310A      8.564049   311A      8.597304
     312A      8.640549   313A      8.641428   314A      8.641428
     315A      8.661219   316A      8.764859   317A      8.764859
     318A      8.926373   319A      9.036489   320A      9.070459
     321A      9.070459   322A      9.312710   323A      9.327133
     324A      9.327133   325A      9.406865   326A      9.406865
     327A      9.421623   328A      9.490562   329A      9.490562
     330A      9.560304   331A      9.565995   332A      9.565995
     333A      9.605758   334A      9.605758   335A      9.715655
     336A      9.715655   337A      9.814438   338A      9.888405
     339A      9.898720   340A      9.898720   341A     10.022226
     342A     10.022226   343A     10.034082   344A     10.098394
     345A     10.098394   346A     10.104198   347A     10.104198
     348A     10.251421   349A     10.257849   350A     10.316003
     351A     10.342611   352A     10.577779   353A     10.577779
     354A     10.590283   355A     10.631691   356A     10.631691
     357A     10.703193   358A     10.703193   359A     10.785990
     360A     10.785990   361A     11.032347   362A     11.032347
     363A     11.038680   364A     11.038680   365A     11.054684
     366A     11.062982   367A     11.124868   368A     11.353967
     369A     11.391860   370A     11.391860   371A     11.522813
     372A     11.576224   373A     11.576224   374A     11.698115
     375A     11.845606   376A     11.845606   377A     12.089507
     378A     12.089507   379A     12.185883   380A     12.343885
     381A     12.643972   382A     12.717252   383A     12.893742
     384A     12.893742   385A     13.106908   386A     13.106909
     387A     13.119192   388A     13.173857   389A     13.173857
     390A     13.372857   391A     13.432113   392A     13.854048
     393A     13.854048   394A     13.952061   395A     13.952061
     396A     14.122185   397A     14.122185   398A     14.697734
     399A     14.697734   400A     14.885203   401A     15.090392
     402A     15.092749   403A     15.092749   404A     15.393498
     405A     16.241144   406A     16.425490   407A     16.425490
     408A     16.426059   409A     16.426059   410A     17.143078
     411A     17.143078   412A     17.201447   413A     17.213228
     414A     17.213228   415A     17.274510   416A     17.276504
     417A     17.335380   418A     17.366777   419A     17.366777
     420A     17.376284   421A     17.376284   422A     17.561854
     423A     17.561854   424A     17.675551   425A     17.736348
     426A     17.928614   427A     17.928614   428A     18.156110
     429A     18.156110   430A     18.205383   431A     18.261249
     432A     18.261249   433A     18.336205   434A     18.396985
     435A     18.396985   436A     18.444860   437A     18.542371
     438A     18.727294   439A     18.829136   440A     18.829136
     441A     19.095887   442A     19.095887   443A     19.169454
     444A     19.173476   445A     19.173476   446A     19.190011
     447A     19.190011   448A     19.555883   449A     19.786105
     450A     20.179518   451A     20.209427   452A     20.209427
     453A     20.278039   454A     20.310478   455A     20.357562
     456A     20.357562   457A     20.438024   458A     20.438024
     459A     20.621400   460A     20.725182   461A     20.725182
     462A     20.796438   463A     20.917557   464A     20.917557
     465A     21.194611   466A     21.234400   467A     21.234400
     468A     21.327567   469A     21.358363   470A     21.386277
     471A     21.579574   472A     21.579574   473A     21.620913
     474A     21.620913   475A     21.681416   476A     21.753646
     477A     21.763070   478A     21.763070   479A     21.954434
     480A     21.971851   481A     21.971851   482A     21.977810
     483A     21.977810   484A     22.144433   485A     22.144433
     486A     22.209945   487A     22.243107   488A     22.243107
     489A     22.298356   490A     22.430712   491A     22.430712
     492A     22.798302   493A     22.884291   494A     23.140136
     495A     23.140136   496A     23.150253   497A     23.325356
     498A     23.325356   499A     23.423808   500A     23.566589
     501A     23.566589   502A     23.735075   503A     23.884983
     504A     23.884983   505A     23.959733   506A     23.959733
     507A     24.058535   508A     24.109561   509A     24.109561
     510A     24.178704   511A     24.191390   512A     24.245719
     513A     24.245719   514A     24.308380   515A     24.580853
     516A     24.580853   517A     24.745434   518A     24.745434
     519A     24.850344   520A     24.850344   521A     24.901256
     522A     25.279799   523A     25.279799   524A     25.587639
     525A     25.587639   526A     25.609914   527A     25.703939
     528A     26.114472   529A     26.114473   530A     26.674330
     531A     26.695251   532A     26.695251   533A     26.858311
     534A     27.231980   535A     27.351720   536A     27.351720
     537A     27.477018   538A     27.477018   539A     27.638051
     540A     27.665538   541A     27.745318   542A     27.745318
     543A     28.238442   544A     28.238442   545A     28.800636
     546A     28.800637   547A     29.196828   548A     29.280557
     549A     29.924456   550A     30.125987   551A     30.125987
     552A     30.235764   553A     31.143562   554A     31.543169
     555A     31.543169   556A     31.635775   557A     31.635775
     558A     32.805460   559A     34.292346   560A     34.292346
     561A     36.565274   562A     37.082870   563A     37.082871
     564A     37.567314   565A     37.567315   566A     37.795750
     567A     40.221607   568A     40.742129   569A     40.742129
     570A     87.246734

    Beta Occupied:

       1A    -15.969687     2A     -1.456569     3A     -1.033951
       4A     -1.033951

    Beta Virtual:

       5A     -0.248479     6A     -0.144678     7A     -0.095860
       8A     -0.095860     9A     -0.068834    10A     -0.048171
      11A     -0.047222    12A     -0.047222    13A     -0.024850
      14A     -0.024850    15A     -0.015003    16A     -0.013068
      17A     -0.013068    18A      0.055902    19A      0.059466
      20A      0.061063    21A      0.061063    22A      0.077413
      23A      0.077413    24A      0.082141    25A      0.103881
      26A      0.104505    27A      0.104505    28A      0.149062
      29A      0.149062    30A      0.170464    31A      0.208308
      32A      0.209127    33A      0.209127    34A      0.252435
      35A      0.252435    36A      0.284046    37A      0.284046
      38A      0.300053    39A      0.303745    40A      0.323461
      41A      0.326682    42A      0.326682    43A      0.330543
      44A      0.336334    45A      0.336334    46A      0.351390
      47A      0.358604    48A      0.358604    49A      0.383716
      50A      0.383716    51A      0.431858    52A      0.432797
      53A      0.514596    54A      0.514596    55A      0.536931
      56A      0.536931    57A      0.538486    58A      0.598056
      59A      0.618030    60A      0.618030    61A      0.637366
      62A      0.637366    63A      0.708941    64A      0.708941
      65A      0.725507    66A      0.747780    67A      0.770668
      68A      0.785739    69A      0.820090    70A      0.820090
      71A      0.838023    72A      0.838023    73A      0.866809
      74A      0.866809    75A      0.871111    76A      0.905656
      77A      0.905656    78A      0.912815    79A      0.914105
      80A      0.919603    81A      0.919603    82A      0.975851
      83A      0.975851    84A      0.978548    85A      0.978548
      86A      0.986933    87A      1.009066    88A      1.080904
      89A      1.117335    90A      1.120024    91A      1.120024
      92A      1.139990    93A      1.139990    94A      1.216260
      95A      1.232448    96A      1.240518    97A      1.240518
      98A      1.298531    99A      1.298531   100A      1.390358
     101A      1.464678   102A      1.464678   103A      1.606698
     104A      1.609088   105A      1.620655   106A      1.620655
     107A      1.625715   108A      1.625715   109A      1.671131
     110A      1.671131   111A      1.690850   112A      1.695075
     113A      1.734403   114A      1.744614   115A      1.744614
     116A      1.748748   117A      1.779522   118A      1.779522
     119A      1.812217   120A      1.882092   121A      1.882092
     122A      1.925073   123A      1.934993   124A      1.934993
     125A      1.957986   126A      1.957986   127A      1.996216
     128A      2.057485   129A      2.057485   130A      2.095049
     131A      2.095049   132A      2.145226   133A      2.166885
     134A      2.166885   135A      2.171981   136A      2.190615
     137A      2.190615   138A      2.238605   139A      2.281013
     140A      2.292673   141A      2.292673   142A      2.306466
     143A      2.320757   144A      2.320757   145A      2.334497
     146A      2.370280   147A      2.373401   148A      2.373401
     149A      2.387809   150A      2.424031   151A      2.424031
     152A      2.439681   153A      2.439681   154A      2.484246
     155A      2.484246   156A      2.526167   157A      2.542769
     158A      2.552232   159A      2.597433   160A      2.597433
     161A      2.641904   162A      2.641904   163A      2.767954
     164A      2.863996   165A      2.863996   166A      2.938563
     167A      3.005386   168A      3.005386   169A      3.020748
     170A      3.020748   171A      3.055681   172A      3.111385
     173A      3.146256   174A      3.210088   175A      3.210088
     176A      3.327118   177A      3.465314   178A      3.515850
     179A      3.515850   180A      3.555649   181A      3.555649
     182A      3.638566   183A      3.638566   184A      3.639828
     185A      3.693628   186A      3.754518   187A      3.754518
     188A      3.801991   189A      3.803647   190A      3.811632
     191A      3.811632   192A      3.828521   193A      3.828521
     194A      3.893406   195A      3.893406   196A      3.896072
     197A      4.054596   198A      4.073344   199A      4.073344
     200A      4.142413   201A      4.142413   202A      4.142699
     203A      4.142699   204A      4.143402   205A      4.152921
     206A      4.295992   207A      4.295992   208A      4.328243
     209A      4.328243   210A      4.385454   211A      4.405671
     212A      4.405671   213A      4.417070   214A      4.417070
     215A      4.436699   216A      4.529064   217A      4.556939
     218A      4.557856   219A      4.557856   220A      4.560076
     221A      4.576918   222A      4.641669   223A      4.718251
     224A      4.718251   225A      4.753400   226A      4.753400
     227A      4.803221   228A      4.810856   229A      4.810856
     230A      4.855754   231A      4.855754   232A      4.880385
     233A      4.880385   234A      4.927019   235A      4.934726
     236A      4.934726   237A      4.936676   238A      4.950047
     239A      5.039776   240A      5.039978   241A      5.130612
     242A      5.130612   243A      5.150333   244A      5.150333
     245A      5.258846   246A      5.293869   247A      5.293869
     248A      5.306773   249A      5.335992   250A      5.335992
     251A      5.391870   252A      5.391870   253A      5.496908
     254A      5.498889   255A      5.498889   256A      5.516922
     257A      5.565754   258A      5.565754   259A      5.629538
     260A      5.667804   261A      5.667804   262A      5.859482
     263A      5.864645   264A      5.877546   265A      5.877546
     266A      5.924202   267A      5.924202   268A      5.945452
     269A      5.945452   270A      6.043396   271A      6.143324
     272A      6.164840   273A      6.350275   274A      6.350275
     275A      6.638422   276A      6.638422   277A      6.642642
     278A      6.710895   279A      6.767759   280A      6.767759
     281A      6.786778   282A      7.153490   283A      7.153490
     284A      7.160074   285A      7.160074   286A      7.312936
     287A      7.338666   288A      7.352059   289A      7.469917
     290A      7.469917   291A      7.516743   292A      7.579530
     293A      7.579530   294A      7.650549   295A      7.669363
     296A      7.669363   297A      7.930148   298A      7.930148
     299A      8.038006   300A      8.038006   301A      8.116994
     302A      8.118445   303A      8.118445   304A      8.189441
     305A      8.200903   306A      8.200903   307A      8.227628
     308A      8.378039   309A      8.570362   310A      8.570362
     311A      8.599964   312A      8.641290   313A      8.647744
     314A      8.647744   315A      8.672503   316A      8.771491
     317A      8.771491   318A      8.937848   319A      9.049682
     320A      9.075354   321A      9.075354   322A      9.314272
     323A      9.338215   324A      9.338215   325A      9.408023
     326A      9.408023   327A      9.422591   328A      9.494550
     329A      9.494550   330A      9.566490   331A      9.576310
     332A      9.576310   333A      9.607861   334A      9.607861
     335A      9.721490   336A      9.721491   337A      9.826741
     338A      9.891746   339A      9.911802   340A      9.911802
     341A     10.022853   342A     10.022853   343A     10.033684
     344A     10.103870   345A     10.103870   346A     10.105791
     347A     10.105791   348A     10.256096   349A     10.267984
     350A     10.323781   351A     10.343783   352A     10.580553
     353A     10.580553   354A     10.592498   355A     10.635343
     356A     10.635343   357A     10.708899   358A     10.708899
     359A     10.789984   360A     10.789984   361A     11.043654
     362A     11.043654   363A     11.044742   364A     11.044742
     365A     11.067043   366A     11.069221   367A     11.130739
     368A     11.370952   369A     11.402064   370A     11.402064
     371A     11.531527   372A     11.590464   373A     11.590465
     374A     11.698007   375A     11.859783   376A     11.859783
     377A     12.103981   378A     12.103981   379A     12.200641
     380A     12.355612   381A     12.653440   382A     12.721180
     383A     12.899376   384A     12.899376   385A     13.113167
     386A     13.113168   387A     13.136838   388A     13.181820
     389A     13.181820   390A     13.379839   391A     13.442202
     392A     13.858183   393A     13.858183   394A     13.957205
     395A     13.957205   396A     14.137417   397A     14.137417
     398A     14.702519   399A     14.702519   400A     14.898122
     401A     15.096615   402A     15.096615   403A     15.102670
     404A     15.395169   405A     16.240529   406A     16.427835
     407A     16.427835   408A     16.436118   409A     16.436118
     410A     17.149844   411A     17.149844   412A     17.211889
     413A     17.216692   414A     17.216692   415A     17.274463
     416A     17.284897   417A     17.336097   418A     17.368828
     419A     17.368828   420A     17.383574   421A     17.383574
     422A     17.569405   423A     17.569405   424A     17.684154
     425A     17.746661   426A     17.932111   427A     17.932111
     428A     18.158657   429A     18.158657   430A     18.208901
     431A     18.268508   432A     18.268508   433A     18.342527
     434A     18.404170   435A     18.404171   436A     18.448086
     437A     18.548889   438A     18.730814   439A     18.836146
     440A     18.836146   441A     19.098337   442A     19.098337
     443A     19.172666   444A     19.183508   445A     19.183508
     446A     19.200483   447A     19.200483   448A     19.570096
     449A     19.799640   450A     20.179235   451A     20.210210
     452A     20.210210   453A     20.288706   454A     20.339118
     455A     20.357150   456A     20.357150   457A     20.440670
     458A     20.440670   459A     20.620924   460A     20.733588
     461A     20.733588   462A     20.812527   463A     20.924995
     464A     20.924995   465A     21.194284   466A     21.237905
     467A     21.237905   468A     21.328860   469A     21.361028
     470A     21.387170   471A     21.584587   472A     21.584587
     473A     21.620433   474A     21.620433   475A     21.683203
     476A     21.755736   477A     21.763288   478A     21.763288
     479A     21.960566   480A     21.978662   481A     21.978662
     482A     21.979404   483A     21.979404   484A     22.155157
     485A     22.155157   486A     22.210781   487A     22.245108
     488A     22.245109   489A     22.313012   490A     22.438039
     491A     22.438039   492A     22.805028   493A     22.884814
     494A     23.147165   495A     23.147165   496A     23.152389
     497A     23.326417   498A     23.326417   499A     23.425223
     500A     23.568409   501A     23.568409   502A     23.749248
     503A     23.887964   504A     23.887964   505A     23.969820
     506A     23.969820   507A     24.058830   508A     24.120535
     509A     24.120535   510A     24.183388   511A     24.199812
     512A     24.246832   513A     24.246832   514A     24.307427
     515A     24.584955   516A     24.584955   517A     24.748933
     518A     24.748933   519A     24.858741   520A     24.858741
     521A     24.909936   522A     25.290911   523A     25.290911
     524A     25.588928   525A     25.588928   526A     25.616030
     527A     25.708782   528A     26.115516   529A     26.115516
     530A     26.686621   531A     26.702170   532A     26.702170
     533A     26.857927   534A     27.239799   535A     27.354035
     536A     27.354035   537A     27.481681   538A     27.481681
     539A     27.645909   540A     27.670446   541A     27.747627
     542A     27.747627   543A     28.241064   544A     28.241064
     545A     28.814599   546A     28.814600   547A     29.199244
     548A     29.283643   549A     29.934780   550A     30.128996
     551A     30.128996   552A     30.238877   553A     31.145775
     554A     31.547354   555A     31.547354   556A     31.651154
     557A     31.651154   558A     32.820659   559A     34.297471
     560A     34.297471   561A     36.565092   562A     37.082867
     563A     37.082867   564A     37.565935   565A     37.565935
     566A     37.794315   567A     40.220723   568A     40.741382
     569A     40.741382   570A     87.256023

    Final Occupation by Irrep:
              A
    DOCC [     4 ]

  @UHF Final Energy:   -55.90833765513905

   => Energetics <=

    Nuclear Repulsion Energy =             11.7954161311641474
    One-Electron Energy =                 -95.2773234870632848
    Two-Electron Energy =                  27.5735697007600855
    Total Energy =                        -55.9083376551390501
      * MP2 total energy                      =  -56.106420058919284
      * CCSD total energy                     =  -56.121029546266548
*** Psi4 exiting successfully. Buy a developer a beer!
