                               Psi4 1.2a1.dev938

  ==> Input File <==

--------------------------------------------------------------------------
# Any line starting with the # character is a comment line
memory 250000 mb
molecule molecule{
1 2
N          0.0000001497        0.0000000000        0.0000000009
H         -0.0000006933        0.0000000000       -1.0198269489
H         -0.0000006933        0.8831960411        0.5099134935
H         -0.0000006933       -0.8831960411        0.5099134431
}

set {
  reference uhf
  basis aug-cc-pv(t+d)z
  scf_type OUT_OF_CORE
  freeze_core true
}

energy('ccsd')
--------------------------------------------------------------------------

    Molecular point group: c1

    Geometry (in Angstrom), charge = 1, multiplicity = 2:

       Center              X                  Y                   Z               Mass
    ------------   -----------------  -----------------  -----------------  -----------------
           N          0.000000149695     0.000000000000     0.000000000888    14.003074004780
           H         -0.000000693305     0.000000000000    -1.019826948912     1.007825032070
           H         -0.000000693305     0.883196041100     0.509913493488     1.007825032070
           H         -0.000000693305    -0.883196041100     0.509913443088     1.007825032070

  Charge       = 1
  Multiplicity = 2
  Basis Set: AUG-CC-PV(T+D)Z
    Blend: AUG-CC-PV(T+D)Z

    Orbital Energies (a.u.)
    -----------------------

    Alpha Occupied:

       1A    -16.007290     2A     -1.586881     3A     -1.060804
       4A     -1.060804     5A     -0.921366

    Alpha Virtual:

       6A     -0.151870     7A     -0.096401     8A     -0.096401
       9A     -0.069908    10A     -0.035016    11A     -0.016987
      12A     -0.016987    13A      0.001119    14A      0.001119
      15A      0.026900    16A      0.040144    17A      0.040144
      18A      0.139601    19A      0.155402    20A      0.171155
      21A      0.171155    22A      0.190050    23A      0.220733
      24A      0.220733    25A      0.245432    26A      0.245432
      27A      0.263929    28A      0.318199    29A      0.318199
      30A      0.425392    31A      0.538770    32A      0.593468
      33A      0.593468    34A      0.628796    35A      0.638340
      36A      0.638340    37A      0.697163    38A      0.697163
      39A      0.721537    40A      0.737291    41A      0.763371
      42A      0.763371    43A      0.830290    44A      0.834380
      45A      0.835773    46A      0.835773    47A      0.852325
      48A      0.852325    49A      0.957257    50A      0.994675
      51A      0.994675    52A      1.021250    53A      1.021250
      54A      1.265345    55A      1.304994    56A      1.341687
      57A      1.341687    58A      1.444958    59A      1.605633
      60A      1.605633    61A      1.615988    62A      1.678849
      63A      1.678849    64A      1.780740    65A      1.780740
      66A      1.861838    67A      2.063340    68A      2.063340
      69A      2.063913    70A      2.063913    71A      2.115504
      72A      2.437641    73A      3.114966    74A      3.114966
      75A      3.334463    76A      3.460429    77A      3.561096
      78A      3.720523    79A      3.720523    80A      3.775022
      81A      3.836115    82A      3.836115    83A      3.935162
      84A      3.979718    85A      3.979718    86A      4.016210
      87A      4.016210    88A      4.037633    89A      4.134960
      90A      4.134960    91A      4.160258    92A      4.380644
      93A      4.380644    94A      4.518805    95A      4.546056
      96A      4.574110    97A      4.574110    98A      4.689817
      99A      4.815910   100A      4.815910   101A      5.003503
     102A      5.003503   103A      5.277507   104A      5.277508
     105A      5.572122   106A      5.720075   107A      5.720075
     108A      5.765424   109A      5.765424   110A      6.043514
     111A      6.754587   112A      7.015431   113A      7.138376
     114A      7.138376   115A     17.473535

    Beta Occupied:

       1A    -15.971372     2A     -1.456953     3A     -1.033729
       4A     -1.033729

    Beta Virtual:

       5A     -0.248554     6A     -0.144599     7A     -0.094712
       8A     -0.094712     9A     -0.041740    10A     -0.027851
      11A     -0.017727    12A     -0.017727    13A      0.004445
      14A      0.004445    15A      0.037262    16A      0.044666
      17A      0.044666    18A      0.155093    19A      0.171802
      20A      0.171802    21A      0.174103    22A      0.202204
      23A      0.226398    24A      0.226398    25A      0.245700
      26A      0.245700    27A      0.281459    28A      0.335024
      29A      0.335024    30A      0.430911    31A      0.596000
      32A      0.596000    33A      0.613796    34A      0.627178
      35A      0.643963    36A      0.643963    37A      0.699830
      38A      0.699830    39A      0.737692    40A      0.744581
      41A      0.766206    42A      0.766206    43A      0.835127
      44A      0.838245    45A      0.838245    46A      0.838492
      47A      0.855768    48A      0.855768    49A      0.985968
      50A      0.995286    51A      0.995286    52A      1.053470
      53A      1.053470    54A      1.291136    55A      1.302387
      56A      1.347325    57A      1.347325    58A      1.444440
      59A      1.622066    60A      1.622066    61A      1.652274
      62A      1.693330    63A      1.693330    64A      1.788815
      65A      1.788815    66A      1.906327    67A      2.070958
      68A      2.070958    69A      2.106502    70A      2.106502
      71A      2.150220    72A      2.440354    73A      3.116674
      74A      3.116674    75A      3.422724    76A      3.469655
      77A      3.562489    78A      3.721430    79A      3.721430
      80A      3.794684    81A      3.840372    82A      3.840372
      83A      3.932824    84A      3.982172    85A      3.982172
      86A      4.018432    87A      4.018432    88A      4.048417
      89A      4.146478    90A      4.146478    91A      4.169702
      92A      4.392441    93A      4.392441    94A      4.545178
      95A      4.577141    96A      4.577141    97A      4.589311
      98A      4.689771    99A      4.853143   100A      4.853143
     101A      5.069754   102A      5.069754   103A      5.279413
     104A      5.279414   105A      5.604708   106A      5.756007
     107A      5.756007   108A      5.781728   109A      5.781728
     110A      6.084828   111A      6.761728   112A      7.021935
     113A      7.147212   114A      7.147212   115A     17.501170

    Final Occupation by Irrep:
              A
    DOCC [     4 ]
    SOCC [     1 ]

  Energy converged.

  @UHF Final Energy:   -55.90373804179571

   => Energetics <=

    Nuclear Repulsion Energy =             11.7954161311641474
    One-Electron Energy =                 -95.2653807479153727
    Two-Electron Energy =                  27.5662265749555146
    Total Energy =                        -55.9037380417957124

  UHF NO Occupations:
  HONO-2 :    3  A 1.9989938
  HONO-1 :    4  A 1.9964319
  HONO-0 :    5  A 1.0000000
  LUNO+0 :    6  A 0.0035681
  LUNO+1 :    7  A 0.0010062
  LUNO+2 :    8  A 0.0010062
  LUNO+3 :    9  A 0.0000013

Properties will be evaluated at   0.000000,   0.000000,   0.000000 Bohr

Properties computed using the SCF density matrix

  Nuclear Dipole Moment: (a.u.)
     X:    -0.0000      Y:     0.0000      Z:    -0.0000

  Electronic Dipole Moment: (a.u.)
     X:     0.0000      Y:     0.0000      Z:    -0.0000

  Dipole Moment: (a.u.)
     X:    -0.0000      Y:     0.0000      Z:    -0.0000     Total:     0.0000

  Dipole Moment: (Debye)
     X:    -0.0000      Y:     0.0000      Z:    -0.0000     Total:     0.0000

*** tstop() called on cqc05 at Thu Aug 20 20:02:36 2020
Module time:
	user time   =      14.34 seconds =       0.24 minutes
	system time =       0.81 seconds =       0.01 minutes
	total time  =         14 seconds =       0.23 minutes
Total time:
	user time   =      14.34 seconds =       0.24 minutes
	system time =       0.81 seconds =       0.01 minutes
	total time  =         14 seconds =       0.23 minutes

*** tstart() called on cqc05
*** at Thu Aug 20 20:02:36 2020

	Wfn Parameters:
	--------------------
	Wavefunction         = CCSD
	Number of irreps     = 1
	Number of MOs        = 115
	Number of active MOs = 114
	AO-Basis             = NONE
	Semicanonical        = false
	Reference            = UHF
	Print Level          = 1

	IRREP	# MOs	# FZDC	# DOCC	# SOCC	# VIRT	# FZVR
	-----	-----	------	------	------	------	------
	 A	   115	    1	    3	    1	    110	    0
	Transforming integrals...
	IWL integrals will be deleted.
	(OO|OO)...
	Presorting SO-basis two-electron integrals.
	Sorting File: SO Ints (nn|nn) nbuckets = 1
	Transforming the one-electron integrals and constructing Fock matrices
	Starting AA/AB first half-transformation.
	Sorting AA/AB half-transformed integrals.
	Starting BB first half-transformation.
	Sorting BB half-transformed integrals.
	First half integral transformation complete.
	Starting AA second half-transformation.
	Starting AB second half-transformation.
	Starting BB second half-transformation.
	Two-electron integral transformation complete.
	(OO|OV)...
	Starting AA second half-transformation.
	Starting AB second half-transformation.
	Starting BB second half-transformation.
	Two-electron integral transformation complete.
	(OO|VV)...
	Starting AA second half-transformation.
	Starting AB second half-transformation.
	Starting BB second half-transformation.
	Two-electron integral transformation complete.
	(OV|OO)...
	Starting AA/AB first half-transformation.
	Sorting AA/AB half-transformed integrals.
	Starting BB first half-transformation.
	Sorting BB half-transformed integrals.
	First half integral transformation complete.
	Starting AA second half-transformation.
	Starting AB second half-transformation.
	Starting BB second half-transformation.
	Two-electron integral transformation complete.
	(OV|OV)...
	Starting AA second half-transformation.
	Starting AB second half-transformation.
	Starting BB second half-transformation.
	Two-electron integral transformation complete.
	(OV|VV)...
	Starting AA second half-transformation.
	Starting AB second half-transformation.
	Starting BB second half-transformation.
	Two-electron integral transformation complete.
	(VV|OO)...
	Starting AA/AB first half-transformation.
	Sorting AA/AB half-transformed integrals.
	Starting BB first half-transformation.
	Sorting BB half-transformed integrals.
	First half integral transformation complete.
	Starting AA second half-transformation.
	Starting AB second half-transformation.
	Starting BB second half-transformation.
	Two-electron integral transformation complete.
	(VV|OV)...
	Starting AA second half-transformation.
	Starting AB second half-transformation.
	Starting BB second half-transformation.
	Two-electron integral transformation complete.
	(VV|VV)...
	Starting AA second half-transformation.
	Starting AB second half-transformation.
	Starting BB second half-transformation.
	Two-electron integral transformation complete.
	Frozen core energy     =    -47.84548750245010

	Size of irrep 0 of <AB|CD> integrals:     35.940 (MW) /    287.520 (MB)
	Total:                                    35.940 (MW) /    287.520 (MB)

	Size of irrep 0 of <ab|cd> integrals:     37.271 (MW) /    298.168 (MB)
	Total:                                    37.271 (MW) /    298.168 (MB)

	Size of irrep 0 of <Ab|Cd> integrals:    149.084 (MW) /   1192.673 (MB)
	Total:                                   149.084 (MW) /   1192.673 (MB)

	Size of irrep 0 of <IA|BC> integrals:      5.324 (MW) /     42.592 (MB)
	Total:                                     5.324 (MW) /     42.592 (MB)

	Size of irrep 0 of <ia|bc> integrals:      4.103 (MW) /     32.823 (MB)
	Total:                                     4.103 (MW) /     32.823 (MB)

	Size of irrep 0 of <Ia|Bc> integrals:      5.421 (MW) /     43.370 (MB)
	Total:                                     5.421 (MW) /     43.370 (MB)

	Size of irrep 0 of <iA|bC> integrals:      4.029 (MW) /     32.234 (MB)
	Total:                                     4.029 (MW) /     32.234 (MB)

	Size of irrep 0 of tIjAb amplitudes:       0.147 (MW) /      1.172 (MB)
	Total:                                     0.147 (MW) /      1.172 (MB)

	Nuclear Rep. energy          =     11.79541613116415
	SCF energy                   =    -55.90373804179571
	One-electron energy          =    -31.55306785005293
	Two-electron (AA) energy     =      3.11252737784704
	Two-electron (BB) energy     =      1.39913588965203
	Two-electron (AB) energy     =      7.18773791204392
	Two-electron energy          =     11.69940117954299
	Reference energy             =    -55.90373804179590

*** tstop() called on cqc05 at Thu Aug 20 20:03:01 2020
Module time:
	user time   =      15.96 seconds =       0.27 minutes
	system time =       8.55 seconds =       0.14 minutes
	total time  =         25 seconds =       0.42 minutes
Total time:
	user time   =      30.30 seconds =       0.51 minutes
	system time =       9.36 seconds =       0.16 minutes
	total time  =         39 seconds =       0.65 minutes

*** tstart() called on cqc05
*** at Thu Aug 20 20:03:01 2020

            **************************
            *                        *
            *        CCENERGY        *
            *                        *
            **************************

    Nuclear Rep. energy (wfn)     =   11.795416131164147
    SCF energy          (wfn)     =  -55.903738041795712
    Reference energy    (file100) =  -55.903738041795897

    Input parameters:
    -----------------
    Wave function   =     CCSD
    Reference wfn   =     UHF
    Brueckner       =     No
    Memory (Mbytes) =     250000.0
    Maxiter         =     50
    R_Convergence   =     1.0e-07
    E_Convergence   =     1.0e-06
    Restart         =     Yes
    DIIS            =     Yes
    AO Basis        =     NONE
    ABCD            =     NEW
    Cache Level     =     2
    Cache Type      =     LRU
    Print Level     =     1
    Num. of threads =     4
    # Amps to Print =     10
    Print MP2 Amps? =     No
    Analyze T2 Amps =     No
    Print Pair Ener =     No
    Local CC        =     No
    SCS-MP2         =     False
    SCSN-MP2        =     False
    SCS-CCSD        =     False

MP2 correlation energy -0.1803310982967546
                Solving CC Amplitude Equations
                ------------------------------
  Iter             Energy              RMS        T1Diag      D1Diag    New D1Diag    D2Diag
  ----     ---------------------    ---------   ----------  ----------  ----------   --------
     0        -0.180331098296755    0.000e+00    0.000000    0.000000    0.000000    0.000000
     1        -0.193642455208019    3.445e-02    0.006446    0.000000    0.000000    0.000000
     2        -0.198589610469161    1.285e-02    0.008964    0.000000    0.000000    0.000000
     3        -0.199012778956233    4.433e-03    0.010103    0.000000    0.000000    0.000000
     4        -0.199050979878511    1.743e-03    0.010444    0.000000    0.000000    0.000000
     5        -0.199066312789642    5.186e-04    0.010457    0.000000    0.000000    0.000000
     6        -0.199069933475369    1.348e-04    0.010438    0.000000    0.000000    0.000000
     7        -0.199070695166810    4.159e-05    0.010427    0.000000    0.000000    0.000000
     8        -0.199070779779762    9.556e-06    0.010425    0.000000    0.000000    0.000000
     9        -0.199070747532494    2.177e-06    0.010424    0.000000    0.000000    0.000000
    10        -0.199070778039550    5.897e-07    0.010424    0.000000    0.000000    0.000000
    11        -0.199070784531165    1.606e-07    0.010424    0.000000    0.000000    0.000000
    12        -0.199070786508355    3.393e-08    0.010424    0.000000    0.000000    0.000000
    12        -0.199070786508355    3.393e-08    0.010424    0.000000    0.000000    0.000000

    Iterations converged.

    CCSD corr. energy   =   -0.199070786508355
    PPL corr. energy    =    0.045958303203348
    OS PPL corr. energy =    0.039959542888214
    SS PPL corr. energy =    0.005998760315134
    Largest TIA Amplitudes:
              3   3        -0.0078946048
              3  12        -0.0066191013
              0   0         0.0054723941
              0   4         0.0049861167
              0   9        -0.0042736114
              0  16         0.0042474298
              0  24        -0.0038955838
              3  25        -0.0036844970
              3  69         0.0023985548
              1  57         0.0022485145

    Largest Tia Amplitudes:
              2  18         0.0048819893
              1  19         0.0048819883
              0  17        -0.0048605408
              0  61        -0.0048491871
              0  10         0.0043330530
              0  34         0.0043284387
              0  25         0.0041419935
              0   5        -0.0037590787
              2  57         0.0037583295
              1  58         0.0037583292

    Largest TIJAB Amplitudes:
      3   1  25  18        -0.0091263477
      3   2  25  17        -0.0091263477
      3   2  17  12         0.0067744553
      3   1  18  12         0.0067744553
      3   2  29  25         0.0067273332
      3   1  30  25         0.0067273331
      2   1  20  18        -0.0066811410
      2   1  19  17         0.0066811407
      3   2  25   7        -0.0066804149
      3   1  25   8        -0.0066804149

    Largest Tijab Amplitudes:
      2   1  21  19        -0.0073552534
      2   1  20  18         0.0073552530
      2   0  47   0         0.0072420114
      1   0  48   0         0.0072420114
      2   0  23   0         0.0072259826
      1   0  24   0         0.0072259826
      2   1  40  19        -0.0062762084
      2   1  39  18         0.0062762080
      2   1  31  18         0.0062651834
      2   1  30  19        -0.0062651834

    Largest TIjAb Amplitudes:
      1   1  18  19        -0.0226677536
      2   2  17  18        -0.0226677534
      3   0   9   0        -0.0225014881
      3   0  16   0         0.0218490619
      3   0   4   0         0.0213510990
      3   0   0   0         0.0201594396
      3   0  24   0        -0.0193490913
      3   0  43   0        -0.0172850797
      3   0  60   0         0.0172669465

      * MP2 total energy                      =  -56.084069140092652
      * CCSD total energy                     =  -56.102808828304255
*** Psi4 exiting successfully. Buy a developer a beer!
