                               Psi4 1.2a1.dev938

  ==> Input File <==

--------------------------------------------------------------------------
# Any line starting with the # character is a comment line
memory 250000 mb
molecule molecule{
1 2
N          0.0000001497        0.0000000000        0.0000000009
H         -0.0000006933        0.0000000000       -1.0198269489
H         -0.0000006933        0.8831960411        0.5099134935
H         -0.0000006933       -0.8831960411        0.5099134431
}

set {
  reference uhf
  basis aug-cc-pv(d+d)z
  scf_type OUT_OF_CORE
  freeze_core true
}

energy('ccsd')
--------------------------------------------------------------------------

    Molecular point group: c1

    Geometry (in Angstrom), charge = 1, multiplicity = 2:

       Center              X                  Y                   Z               Mass
    ------------   -----------------  -----------------  -----------------  -----------------
           N          0.000000149695     0.000000000000     0.000000000888    14.003074004780
           H         -0.000000693305     0.000000000000    -1.019826948912     1.007825032070
           H         -0.000000693305     0.883196041100     0.509913493488     1.007825032070
           H         -0.000000693305    -0.883196041100     0.509913443088     1.007825032070

  Charge       = 1
  Multiplicity = 2
  Basis Set: AUG-CC-PV(D+D)Z
    Blend: AUG-CC-PV(D+D)Z

    Orbital Energies (a.u.)
    -----------------------

    Alpha Occupied:

       1A    -16.015376     2A     -1.588260     3A     -1.061233
       4A     -1.061233     5A     -0.919686

    Alpha Virtual:

       6A     -0.151821     7A     -0.095072     8A     -0.095072
       9A     -0.056465    10A     -0.014002    11A      0.004711
      12A      0.004711    13A      0.029048    14A      0.029048
      15A      0.053072    16A      0.114422    17A      0.114422
      18A      0.250032    19A      0.274586    20A      0.274586
      21A      0.276290    22A      0.343204    23A      0.376920
      24A      0.376920    25A      0.421851    26A      0.421851
      27A      0.439230    28A      0.558944    29A      0.558944
      30A      0.771192    31A      0.927755    32A      1.036339
      33A      1.036339    34A      1.525726    35A      1.544057
      36A      1.544057    37A      1.665163    38A      1.742522
      39A      1.742522    40A      1.842929    41A      1.842929
      42A      1.878176    43A      2.054210    44A      2.254760
      45A      2.254760    46A      2.352962    47A      2.352962
      48A      2.888107    49A      3.137820    50A      3.137820

    Beta Occupied:

       1A    -15.978274     2A     -1.458054     3A     -1.033161
       4A     -1.033161

    Beta Virtual:

       5A     -0.249787     6A     -0.144531     7A     -0.093186
       8A     -0.093186     9A     -0.018964    10A     -0.005242
      11A      0.003892    12A      0.003892    13A      0.033765
      14A      0.033765    15A      0.068061    16A      0.123210
      17A      0.123210    18A      0.275355    19A      0.277485
      20A      0.277485    21A      0.293971    22A      0.357779
      23A      0.381867    24A      0.381867    25A      0.424172
      26A      0.424172    27A      0.480527    28A      0.591027
      29A      0.591027    30A      0.774128    31A      1.047487
      32A      1.047487    33A      1.051001    34A      1.521012
      35A      1.558277    36A      1.558277    37A      1.678781
      38A      1.747185    39A      1.747185    40A      1.849038
      41A      1.849038    42A      1.915877    43A      2.121438
      44A      2.259869    45A      2.259869    46A      2.428369
      47A      2.428369    48A      2.921343    49A      3.152187
      50A      3.152187

    Final Occupation by Irrep:
              A
    DOCC [     4 ]
    SOCC [     1 ]

  Energy converged.

  @UHF Final Energy:   -55.88871733439561

   => Energetics <=

    Nuclear Repulsion Energy =             11.7954161311641474
    One-Electron Energy =                 -95.2198299235559773
    Two-Electron Energy =                  27.5356964579962238
    Total Energy =                        -55.8887173343956078

  UHF NO Occupations:
  HONO-2 :    3  A 1.9990387
  HONO-1 :    4  A 1.9965615
  HONO-0 :    5  A 1.0000000
  LUNO+0 :    6  A 0.0034385
  LUNO+1 :    7  A 0.0009613
  LUNO+2 :    8  A 0.0009613
  LUNO+3 :    9  A 0.0000005

Properties will be evaluated at   0.000000,   0.000000,   0.000000 Bohr

Properties computed using the SCF density matrix

  Nuclear Dipole Moment: (a.u.)
     X:    -0.0000      Y:     0.0000      Z:    -0.0000

  Electronic Dipole Moment: (a.u.)
     X:     0.0000      Y:     0.0000      Z:     0.0000

  Dipole Moment: (a.u.)
     X:    -0.0000      Y:     0.0000      Z:    -0.0000     Total:     0.0000

  Dipole Moment: (Debye)
     X:    -0.0000      Y:     0.0000      Z:    -0.0000     Total:     0.0000

*** tstop() called on cqc05 at Thu Aug 20 19:54:34 2020
Module time:
	user time   =       1.10 seconds =       0.02 minutes
	system time =       0.02 seconds =       0.00 minutes
	total time  =          1 seconds =       0.02 minutes
Total time:
	user time   =       1.10 seconds =       0.02 minutes
	system time =       0.02 seconds =       0.00 minutes
	total time  =          1 seconds =       0.02 minutes

*** tstart() called on cqc05
*** at Thu Aug 20 19:54:34 2020

	Wfn Parameters:
	--------------------
	Wavefunction         = CCSD
	Number of irreps     = 1
	Number of MOs        = 50
	Number of active MOs = 49
	AO-Basis             = NONE
	Semicanonical        = false
	Reference            = UHF
	Print Level          = 1

	IRREP	# MOs	# FZDC	# DOCC	# SOCC	# VIRT	# FZVR
	-----	-----	------	------	------	------	------
	 A	   50	    1	    3	    1	    45	    0
	Transforming integrals...
	IWL integrals will be deleted.
	(OO|OO)...
	Presorting SO-basis two-electron integrals.
	Sorting File: SO Ints (nn|nn) nbuckets = 1
	Transforming the one-electron integrals and constructing Fock matrices
	Starting AA/AB first half-transformation.
	Sorting AA/AB half-transformed integrals.
	Starting BB first half-transformation.
	Sorting BB half-transformed integrals.
	First half integral transformation complete.
	Starting AA second half-transformation.
	Starting AB second half-transformation.
	Starting BB second half-transformation.
	Two-electron integral transformation complete.
	(OO|OV)...
	Starting AA second half-transformation.
	Starting AB second half-transformation.
	Starting BB second half-transformation.
	Two-electron integral transformation complete.
	(OO|VV)...
	Starting AA second half-transformation.
	Starting AB second half-transformation.
	Starting BB second half-transformation.
	Two-electron integral transformation complete.
	(OV|OO)...
	Starting AA/AB first half-transformation.
	Sorting AA/AB half-transformed integrals.
	Starting BB first half-transformation.
	Sorting BB half-transformed integrals.
	First half integral transformation complete.
	Starting AA second half-transformation.
	Starting AB second half-transformation.
	Starting BB second half-transformation.
	Two-electron integral transformation complete.
	(OV|OV)...
	Starting AA second half-transformation.
	Starting AB second half-transformation.
	Starting BB second half-transformation.
	Two-electron integral transformation complete.
	(OV|VV)...
	Starting AA second half-transformation.
	Starting AB second half-transformation.
	Starting BB second half-transformation.
	Two-electron integral transformation complete.
	(VV|OO)...
	Starting AA/AB first half-transformation.
	Sorting AA/AB half-transformed integrals.
	Starting BB first half-transformation.
	Sorting BB half-transformed integrals.
	First half integral transformation complete.
	Starting AA second half-transformation.
	Starting AB second half-transformation.
	Starting BB second half-transformation.
	Two-electron integral transformation complete.
	(VV|OV)...
	Starting AA second half-transformation.
	Starting AB second half-transformation.
	Starting BB second half-transformation.
	Two-electron integral transformation complete.
	(VV|VV)...
	Starting AA second half-transformation.
	Starting AB second half-transformation.
	Starting BB second half-transformation.
	Two-electron integral transformation complete.
	Frozen core energy     =    -47.84523793633815

	Size of irrep 0 of <AB|CD> integrals:      0.980 (MW) /      7.841 (MB)
	Total:                                     0.980 (MW) /      7.841 (MB)

	Size of irrep 0 of <ab|cd> integrals:      1.071 (MW) /      8.570 (MB)
	Total:                                     1.071 (MW) /      8.570 (MB)

	Size of irrep 0 of <Ab|Cd> integrals:      4.285 (MW) /     34.279 (MB)
	Total:                                     4.285 (MW) /     34.279 (MB)

	Size of irrep 0 of <IA|BC> integrals:      0.364 (MW) /      2.916 (MB)
	Total:                                     0.364 (MW) /      2.916 (MB)

	Size of irrep 0 of <ia|bc> integrals:      0.292 (MW) /      2.336 (MB)
	Total:                                     0.292 (MW) /      2.336 (MB)

	Size of irrep 0 of <Ia|Bc> integrals:      0.381 (MW) /      3.047 (MB)
	Total:                                     0.381 (MW) /      3.047 (MB)

	Size of irrep 0 of <iA|bC> integrals:      0.279 (MW) /      2.236 (MB)
	Total:                                     0.279 (MW) /      2.236 (MB)

	Size of irrep 0 of tIjAb amplitudes:       0.025 (MW) /      0.199 (MB)
	Total:                                     0.025 (MW) /      0.199 (MB)

	Nuclear Rep. energy          =     11.79541613116415
	SCF energy                   =    -55.88871733439561
	One-electron energy          =    -31.52300385578028
	Two-electron (AA) energy     =      3.10878427884768
	Two-electron (BB) energy     =      1.39750302770888
	Two-electron (AB) energy     =      7.17782102000221
	Two-electron energy          =     11.68410832655876
	Reference energy             =    -55.88871733439552

*** tstop() called on cqc05 at Thu Aug 20 19:54:35 2020
Module time:
	user time   =       0.50 seconds =       0.01 minutes
	system time =       0.23 seconds =       0.00 minutes
	total time  =          1 seconds =       0.02 minutes
Total time:
	user time   =       1.61 seconds =       0.03 minutes
	system time =       0.25 seconds =       0.00 minutes
	total time  =          2 seconds =       0.03 minutes

*** tstart() called on cqc05
*** at Thu Aug 20 19:54:35 2020

            **************************
            *                        *
            *        CCENERGY        *
            *                        *
            **************************

    Nuclear Rep. energy (wfn)     =   11.795416131164147
    SCF energy          (wfn)     =  -55.888717334395608
    Reference energy    (file100) =  -55.888717334395523

    Input parameters:
    -----------------
    Wave function   =     CCSD
    Reference wfn   =     UHF
    Brueckner       =     No
    Memory (Mbytes) =     250000.0
    Maxiter         =     50
    R_Convergence   =     1.0e-07
    E_Convergence   =     1.0e-06
    Restart         =     Yes
    DIIS            =     Yes
    AO Basis        =     NONE
    ABCD            =     NEW
    Cache Level     =     2
    Cache Type      =     LRU
    Print Level     =     1
    Num. of threads =     4
    # Amps to Print =     10
    Print MP2 Amps? =     No
    Analyze T2 Amps =     No
    Print Pair Ener =     No
    Local CC        =     No
    SCS-MP2         =     False
    SCSN-MP2        =     False
    SCS-CCSD        =     False

MP2 correlation energy -0.1461618147842285
                Solving CC Amplitude Equations
                ------------------------------
  Iter             Energy              RMS        T1Diag      D1Diag    New D1Diag    D2Diag
  ----     ---------------------    ---------   ----------  ----------  ----------   --------
     0        -0.146161814784229    0.000e+00    0.000000    0.000000    0.000000    0.000000
     1        -0.161433653662883    3.566e-02    0.006221    0.000000    0.000000    0.000000
     2        -0.166396126716698    1.350e-02    0.009214    0.000000    0.000000    0.000000
     3        -0.166854087913491    4.500e-03    0.010273    0.000000    0.000000    0.000000
     4        -0.166888477233118    1.651e-03    0.010465    0.000000    0.000000    0.000000
     5        -0.166908721192459    5.413e-04    0.010471    0.000000    0.000000    0.000000
     6        -0.166912635790987    1.297e-04    0.010450    0.000000    0.000000    0.000000
     7        -0.166912599882242    3.335e-05    0.010442    0.000000    0.000000    0.000000
     8        -0.166912664085586    8.354e-06    0.010440    0.000000    0.000000    0.000000
     9        -0.166912696840691    1.834e-06    0.010440    0.000000    0.000000    0.000000
    10        -0.166912709165405    4.737e-07    0.010440    0.000000    0.000000    0.000000
    11        -0.166912704430473    9.069e-08    0.010440    0.000000    0.000000    0.000000
    11        -0.166912704430473    9.069e-08    0.010440    0.000000    0.000000    0.000000

    Iterations converged.

    CCSD corr. energy   =   -0.166912704430473
    PPL corr. energy    =    0.035886871857051
    OS PPL corr. energy =    0.031134379986976
    SS PPL corr. energy =    0.004752491870075
    Largest TIA Amplitudes:
              3   3        -0.0107792501
              3  12        -0.0082323331
              0   0         0.0067131473
              0   4         0.0063265684
              1   8        -0.0053593856
              2   7        -0.0053593807
              0   9        -0.0053323545
              2  34         0.0041630607
              1  35         0.0041630602
              1   2        -0.0037988767

    Largest Tia Amplitudes:
              0  38        -0.0061318062
              0  22        -0.0055772682
              0  10         0.0043614764
              2  35         0.0039048468
              1  36         0.0039048461
              1  21        -0.0037538466
              2  20         0.0037538446
              2  39         0.0031879192
              1  40        -0.0031879185
              1  39         0.0028521515

    Largest TIJAB Amplitudes:
      2   1  20  19         0.0118280001
      3   1  27  25         0.0115744945
      3   2  26  25         0.0115744945
      3   1  25   8        -0.0109248012
      3   2  25   7        -0.0109248011
      3   1  23  21        -0.0101146871
      3   2  22  21         0.0101146861
      3   1  12   8        -0.0088428055
      3   2  12   7        -0.0088428054
      3   1  21  11        -0.0084255258

    Largest Tijab Amplitudes:
      2   1  21  20         0.0111987357
      1   0  24   0        -0.0084689943
      2   0  23   0        -0.0084689942
      2   1  21   7         0.0071517401
      2   1  20   6         0.0071517399
      2   1  27  26         0.0070279006
      2   1  20  14         0.0068353201
      2   1  21  15        -0.0068353199
      2   1   7   6         0.0066513697
      2   0  11   0         0.0063400991

    Largest TIjAb Amplitudes:
      3   0  21   0         0.0298475020
      3   0   9   0        -0.0283566685
      2   2   7   8        -0.0244943334
      1   1   8   9        -0.0244943329
      3   0   4   0         0.0234137238
      3   0   0   0         0.0209140889
      2   2  19  20        -0.0205455766
      1   1  20  21        -0.0205455753
      1   1   8  21         0.0193598642
      2   2   7  20        -0.0193598642

    SCF energy       (wfn)                    =  -55.888717334395608
    Reference energy (file100)                =  -55.888717334395523

    Opposite-spin MP2 correlation energy      =   -0.115122941699278
    Same-spin MP2 correlation energy          =   -0.031038873084943
    MP2 correlation energy                    =   -0.146161814784228
      * MP2 total energy                      =  -56.034879149179751

    Opposite-spin CCSD correlation energy     =   -0.136448019668902
    Same-spin CCSD correlation energy         =   -0.030464685208925
    CCSD correlation energy                   =   -0.166912704430473
      * CCSD total energy                     =  -56.055630038825996

*** tstop() called on cqc05 at Thu Aug 20 19:54:37 2020
Module time:
	user time   =       0.86 seconds =       0.01 minutes
	system time =       0.38 seconds =       0.01 minutes
	total time  =          2 seconds =       0.03 minutes
Total time:
	user time   =       2.47 seconds =       0.04 minutes
	system time =       0.63 seconds =       0.01 minutes
	total time  =          4 seconds =       0.07 minutes

*** Psi4 exiting successfully. Buy a developer a beer!
