                               Psi4 1.4a3.dev88

  ==> Input File <==

--------------------------------------------------------------------------
# Any line starting with the # character is a comment line
memory 250000 mb
molecule molecule{
-1 1
C          0.0000000000        0.0000000000       -0.0725642828
H          1.0380267415        0.0000000000        0.2882346175
H         -0.5190133708        0.8989575280        0.2882346175
H         -0.5190133708       -0.8989575280        0.2882346175
}

set {
  reference rhf
  basis aug-cc-pV(d+d)Z
  scf_type OUT_OF_CORE
  freeze_core true
}

energy('ccsd(t)')
--------------------------------------------------------------------------

    Molecular point group: cs

    Geometry (in Angstrom), charge = -1, multiplicity = 1:

       Center              X                  Y                   Z               Mass
    ------------   -----------------  -----------------  -----------------  -----------------
         C           -0.000000000003     0.072610796300     0.000000000000    12.000000000000
         H           -0.519013370764    -0.288188104000     0.898957527982     1.007825032230
         H           -0.519013370764    -0.288188104000    -0.898957527982     1.007825032230
         H            1.038026741568    -0.288188104000     0.000000000000     1.007825032230

  Charge       = -1
  Multiplicity = 1
  Basis Set: AUG-CC-PV(D+D)Z
    Blend: AUG-CC-PV(D+D)Z

    Orbital Energies [Eh]
    ---------------------

    Doubly Occupied:

       1Ap   -10.944152     2Ap    -0.623811     3Ap    -0.268462
       1App   -0.268462     4Ap    -0.021157

  @RHF Final Energy:   -39.51170232704446

   => Energetics <=

    Nuclear Repulsion Energy =              9.5505782690950429
    One-Electron Energy =                 -73.8724737072990649
    Two-Electron Energy =                  24.8101931111595668
    Total Energy =                        -39.5117023270444605

  Dipole Moment: [D]
     X:     0.0000      Y:    -1.6390      Z:     0.0000     Total:     1.6390

      * MP2 total energy                      =  -39.695696789263536
      * CCSD total energy                     =  -39.713333265161516
      * CCSD(T) total energy                  =  -39.720496941741636
*** Psi4 exiting successfully. Buy a developer a beer!
