                               Psi4 1.4a3.dev88

  ==> Input File <==

--------------------------------------------------------------------------
# Any line starting with the # character is a comment line
memory 250000 mb
molecule molecule{
-1 1
C          0.0000000000        0.0000000000       -0.0725642828
H          1.0380267415        0.0000000000        0.2882346175
H         -0.5190133708        0.8989575280        0.2882346175
H         -0.5190133708       -0.8989575280        0.2882346175
}

set {
  reference rhf
  basis aug-cc-pv(q+d)z
  scf_type OUT_OF_CORE
  freeze_core true
}

energy('ccsd(t)')
--------------------------------------------------------------------------

    Molecular point group: cs

    Geometry (in Angstrom), charge = -1, multiplicity = 1:

       Center              X                  Y                   Z               Mass
    ------------   -----------------  -----------------  -----------------  -----------------
         C           -0.000000000003     0.072610796300     0.000000000000    12.000000000000
         H           -0.519013370764    -0.288188104000     0.898957527982     1.007825032230
         H           -0.519013370764    -0.288188104000    -0.898957527982     1.007825032230
         H            1.038026741568    -0.288188104000     0.000000000000     1.007825032230

  Charge       = -1
  Multiplicity = 1
  Basis Set: AUG-CC-PV(Q+D)Z
    Blend: AUG-CC-PV(Q+D)Z

    Orbital Energies [Eh]
    ---------------------

    Doubly Occupied:

       1Ap   -10.938846     2Ap    -0.625504     1App   -0.271896
       3Ap    -0.271896     4Ap    -0.023006

  @RHF Final Energy:   -39.52583519763590

   => Energetics <=

    Nuclear Repulsion Energy =              9.5505782690950429
    One-Electron Energy =                 -73.8905359077685659
    Two-Electron Energy =                  24.8141224410376253
    Total Energy =                        -39.5258351976358995

  Dipole Moment: [D]
     X:     0.0000      Y:    -1.6572      Z:     0.0000     Total:     1.6572

      * MP2 total energy                      =  -39.753229193513967
      * CCSD total energy                     =  -39.763450981533481
      * CCSD(T) total energy                  =  -39.773898047071718
*** Psi4 exiting successfully. Buy a developer a beer!
