                               Psi4 1.2a1.dev938

  ==> Input File <==

--------------------------------------------------------------------------
# Any line starting with the # character is a comment line
memory 250000 mb
molecule molecule{
0 2
O          0.0000000000       -0.0289459853        0.5529111539
C          0.0000000000        0.1015352015       -0.6237171836
H          0.0000000000       -0.7504622383       -1.3441074102
}

set {
  reference uhf
  basis aug-cc-pv(q+d)z
  scf_type OUT_OF_CORE
  freeze_core true
}

energy('ccsd')
--------------------------------------------------------------------------

    Molecular point group: cs

    Geometry (in Angstrom), charge = 0, multiplicity = 2:

       Center              X                  Y                   Z               Mass
    ------------   -----------------  -----------------  -----------------  -----------------
           O          0.028914927033    -0.552754775506     0.000000000000    15.994914619560
           C         -0.101566259767     0.623873561994     0.000000000000    12.000000000000
           H          0.750431180033     1.344263788594     0.000000000000     1.007825032070

  Charge       = 0
  Multiplicity = 2
  Basis Set: AUG-CC-PV(Q+D)Z
    Blend: AUG-CC-PV(Q+D)Z

    Orbital Energies (a.u.)
    -----------------------

    Alpha Occupied:

       1Ap   -20.620853     2Ap   -11.358412     3Ap    -1.457109
       4Ap    -0.862870     5Ap    -0.713227     6Ap    -0.651037
       1App   -0.574406     7Ap    -0.397203

    Alpha Virtual:

       8Ap     0.024715     2App    0.056536     9Ap     0.066594
      10Ap     0.068245     3App    0.115471    11Ap     0.118486
      12Ap     0.147732    13Ap     0.160143     4App    0.172437
      14Ap     0.197019     5App    0.212718    15Ap     0.214802
      16Ap     0.246781    17Ap     0.265540     6App    0.270688
      18Ap     0.317266     7App    0.323583    19Ap     0.324334
      20Ap     0.345932     8App    0.409961    21Ap     0.424848
      22Ap     0.453110    23Ap     0.517128     9App    0.545401
      24Ap     0.565873    25Ap     0.571652    10App    0.623355
      11App    0.636336    26Ap     0.639672    27Ap     0.654173
      28Ap     0.701378    29Ap     0.719058    12App    0.734676
      30Ap     0.748323    13App    0.768337    31Ap     0.790188
      14App    0.815502    32Ap     0.817957    33Ap     0.863639
      15App    0.879029    34Ap     0.888560    35Ap     0.898017
      16App    0.920023    36Ap     0.968428    37Ap     1.000515
      17App    1.010743    18App    1.059631    38Ap     1.075780
      39Ap     1.222345    40Ap     1.255000    19App    1.365790
      41Ap     1.380989    42Ap     1.455162    43Ap     1.465542
      20App    1.506322    44Ap     1.548480    21App    1.562150
      45Ap     1.563468    22App    1.585970    46Ap     1.607756
      47Ap     1.658275    23App    1.707337    48Ap     1.744727
      24App    1.763021    49Ap     1.796433    50Ap     1.829556
      51Ap     1.880009    25App    1.903367    52Ap     1.916819
      26App    1.934640    53Ap     1.935292    27App    1.976975
      54Ap     2.009466    55Ap     2.030102    28App    2.059471
      29App    2.139400    56Ap     2.177419    57Ap     2.235116
      30App    2.253047    31App    2.284106    58Ap     2.305235
      59Ap     2.326179    32App    2.379839    60Ap     2.383810
      61Ap     2.467446    33App    2.487417    62Ap     2.514015
      34App    2.576493    63Ap     2.686731    35App    2.719893
      64Ap     2.754879    65Ap     2.769526    36App    2.849878
      66Ap     2.857242    67Ap     2.922070    37App    3.026667
      68Ap     3.038485    69Ap     3.253253    70Ap     3.413072
      38App    3.441316    71Ap     3.570746    39App    3.580186
      72Ap     3.717959    40App    3.805525    73Ap     3.834573
      41App    3.844411    74Ap     3.923771    75Ap     3.968885
      76Ap     4.037175    42App    4.137175    77Ap     4.168774
      78Ap     4.193760    43App    4.208158    79Ap     4.262808
      44App    4.277530    45App    4.288808    80Ap     4.305630
      81Ap     4.377806    46App    4.461679    82Ap     4.464934
      83Ap     4.545191    47App    4.594627    84Ap     4.598054
      85Ap     4.815814    48App    4.862196    86Ap     5.022071
      49App    5.154515    50App    5.288623    87Ap     5.292672
      88Ap     5.359725    89Ap     5.589397    90Ap     5.804564
      91Ap     5.958248    51App    5.969509    52App    6.096235
      92Ap     6.096911    53App    6.166775    54App    6.271229
      93Ap     6.288369    55App    6.310172    94Ap     6.319551
      56App    6.361116    95Ap     6.508522    96Ap     6.524460
      97Ap     6.641762    57App    6.755221    98Ap     6.857163
      58App    6.971624    99Ap     7.047662   100Ap     7.153398
      59App    7.302764   101Ap     7.309490   102Ap     7.404104
      60App    7.456393   103Ap     7.872529    61App    7.930243
     104Ap     8.031061    62App    8.220678   105Ap     8.291421
     106Ap     8.481239    63App    8.514625   107Ap     8.575419
     108Ap     8.869340   109Ap     9.032601    64App    9.070262
      65App    9.379640   110Ap     9.591098   111Ap     9.777824
      66App   10.008964   112Ap    10.264969   113Ap    10.547982
      67App   10.674217   114Ap    10.689344    68App   10.982875
     115Ap    10.984563    69App   11.184082    70App   11.218938
     116Ap    11.235894   117Ap    11.370082    71App   11.432460
     118Ap    11.515989   119Ap    11.590253    72App   11.954630
     120Ap    11.977122   121Ap    12.080686   122Ap    12.347234
      73App   12.402882   123Ap    12.600402    74App   12.744459
     124Ap    12.982964    75App   13.004343   125Ap    13.091572
     126Ap    13.811208    76App   14.008909   127Ap    14.318899
     128Ap    14.827584   129Ap    26.102413   130Ap    43.294077

    Beta Occupied:

       1Ap   -20.609266     2Ap   -11.338920     3Ap    -1.428864
       4Ap    -0.801325     5Ap    -0.667190     1App   -0.576659
       6Ap    -0.525006

    Beta Virtual:

       7Ap     0.025371     8Ap     0.050928     2App    0.058981
       9Ap     0.067079    10Ap     0.103470    11Ap     0.123287
       3App    0.133252    12Ap     0.149054    13Ap     0.163991
       4App    0.172949    14Ap     0.210827    15Ap     0.216606
       5App    0.218202    16Ap     0.254587    17Ap     0.272099
       6App    0.274478     7App    0.323571    18Ap     0.325614
      19Ap     0.334002    20Ap     0.363090     8App    0.418445
      21Ap     0.434673    22Ap     0.460414     9App    0.547704
      23Ap     0.547803    24Ap     0.569884    25Ap     0.578936
      10App    0.629970    11App    0.641859    26Ap     0.660023
      27Ap     0.661569    28Ap     0.709616    29Ap     0.729547
      12App    0.736609    30Ap     0.758322    13App    0.782575
      31Ap     0.805128    14App    0.818057    32Ap     0.831456
      33Ap     0.878909    15App    0.883306    34Ap     0.896959
      35Ap     0.908993    16App    0.925071    36Ap     0.979704
      37Ap     1.011490    17App    1.012575    18App    1.065896
      38Ap     1.086629    39Ap     1.230548    40Ap     1.280204
      19App    1.375473    41Ap     1.392806    42Ap     1.466307
      43Ap     1.470116    20App    1.507041    44Ap     1.556121
      21App    1.565717    45Ap     1.576322    22App    1.590233
      46Ap     1.616819    47Ap     1.661188    23App    1.712600
      48Ap     1.759251    24App    1.767068    49Ap     1.805097
      50Ap     1.835521    51Ap     1.889142    25App    1.909083
      52Ap     1.924093    26App    1.940347    53Ap     1.956744
      27App    1.983190    54Ap     2.020105    55Ap     2.051881
      28App    2.067040    29App    2.167144    56Ap     2.197463
      30App    2.260127    57Ap     2.264284    31App    2.302808
      58Ap     2.316742    59Ap     2.340840    32App    2.391843
      60Ap     2.394979    61Ap     2.478466    33App    2.492937
      62Ap     2.522102    34App    2.584343    63Ap     2.706889
      35App    2.728739    64Ap     2.776272    65Ap     2.785308
      36App    2.857439    66Ap     2.869318    67Ap     2.937018
      37App    3.033217    68Ap     3.046913    69Ap     3.263042
      70Ap     3.428386    38App    3.449517    71Ap     3.583315
      39App    3.586265    72Ap     3.726592    40App    3.808251
      73Ap     3.839287    41App    3.846683    74Ap     3.940047
      75Ap     3.984242    76Ap     4.043968    42App    4.145349
      77Ap     4.178248    78Ap     4.200652    43App    4.214674
      79Ap     4.272108    44App    4.289324    45App    4.289747
      80Ap     4.316085    81Ap     4.385072    46App    4.464873
      82Ap     4.471968    83Ap     4.551214    47App    4.604483
      84Ap     4.608952    85Ap     4.828663    48App    4.867969
      86Ap     5.047315    49App    5.159309    50App    5.298382
      87Ap     5.301447    88Ap     5.374678    89Ap     5.607366
      90Ap     5.813616    91Ap     5.972144    51App    5.982630
      52App    6.106324    92Ap     6.110210    53App    6.181877
      54App    6.286838    93Ap     6.306157    55App    6.330634
      94Ap     6.345841    56App    6.371439    95Ap     6.524963
      96Ap     6.543227    97Ap     6.652277    57App    6.767962
      98Ap     6.869545    58App    6.978793    99Ap     7.060740
     100Ap     7.162631   101Ap     7.323613    59App    7.327424
     102Ap     7.432225    60App    7.461990   103Ap     7.882416
      61App    7.937392   104Ap     8.041960    62App    8.233061
     105Ap     8.305798   106Ap     8.492730    63App    8.521828
     107Ap     8.589471   108Ap     8.881796   109Ap     9.042315
      64App    9.079520    65App    9.388527   110Ap     9.602273
     111Ap     9.787947    66App   10.017277   112Ap    10.276222
     113Ap    10.557695    67App   10.681629   114Ap    10.696709
      68App   10.988230   115Ap    10.990297    69App   11.187292
      70App   11.221824   116Ap    11.244380   117Ap    11.390065
      71App   11.433592   118Ap    11.525743   119Ap    11.600996
      72App   11.968956   120Ap    11.991179   121Ap    12.084339
     122Ap    12.357229    73App   12.413000   123Ap    12.616126
      74App   12.745737   124Ap    12.999133    75App   13.021729
     125Ap    13.106020   126Ap    13.816692    76App   14.010672
     127Ap    14.337011   128Ap    14.834473   129Ap    26.113541
     130Ap    43.301047

    Final Occupation by Irrep:
             Ap   App
    DOCC [     6,    1 ]
    SOCC [     1,    0 ]

  Energy converged.

  @UHF Final Energy:  -113.30107982276830

   => Energetics <=

    Nuclear Repulsion Energy =             26.3875698580124549
    One-Electron Energy =                -206.7949520636459226
    Two-Electron Energy =                  67.1063023828651666
    Total Energy =                       -113.3010798227683011

  UHF NO Occupations:
  HONO-2 :    1App 1.9978749
  HONO-1 :    6 Ap 1.9957746
  HONO-0 :    7 Ap 1.0000000
  LUNO+0 :    8 Ap 0.0042254
  LUNO+1 :    2App 0.0021251
  LUNO+2 :    9 Ap 0.0016941
  LUNO+3 :   10 Ap 0.0002244

Properties will be evaluated at   0.000000,   0.000000,   0.000000 Bohr

Properties computed using the SCF density matrix

  Nuclear Dipole Moment: (a.u.)
     X:     0.7036      Y:     1.2576      Z:     0.0000

  Electronic Dipole Moment: (a.u.)
     X:    -0.4144      Y:    -0.4460      Z:     0.0000

  Dipole Moment: (a.u.)
     X:     0.2892      Y:     0.8116      Z:     0.0000     Total:     0.8616

  Dipole Moment: (Debye)
     X:     0.7351      Y:     2.0628      Z:     0.0000     Total:     2.1899

*** tstop() called on cqc05 at Thu Aug 20 20:51:28 2020
Module time:
	user time   =     100.78 seconds =       1.68 minutes
	system time =       6.55 seconds =       0.11 minutes
	total time  =        105 seconds =       1.75 minutes
Total time:
	user time   =     100.78 seconds =       1.68 minutes
	system time =       6.55 seconds =       0.11 minutes
	total time  =        105 seconds =       1.75 minutes

*** tstart() called on cqc05
*** at Thu Aug 20 20:51:28 2020

	Wfn Parameters:
	--------------------
	Wavefunction         = CCSD
	Number of irreps     = 2
	Number of MOs        = 206
	Number of active MOs = 204
	AO-Basis             = NONE
	Semicanonical        = false
	Reference            = UHF
	Print Level          = 1

	IRREP	# MOs	# FZDC	# DOCC	# SOCC	# VIRT	# FZVR
	-----	-----	------	------	------	------	------
	 Ap	   130	    2	    4	    1	    123	    0
	 App	   76	    0	    1	    0	    75	    0
	Transforming integrals...
	IWL integrals will be deleted.
	(OO|OO)...
	Presorting SO-basis two-electron integrals.
	Sorting File: SO Ints (nn|nn) nbuckets = 1
	Transforming the one-electron integrals and constructing Fock matrices
	Starting AA/AB first half-transformation.
	Sorting AA/AB half-transformed integrals.
	Starting BB first half-transformation.
	Sorting BB half-transformed integrals.
	First half integral transformation complete.
	Starting AA second half-transformation.
	Starting AB second half-transformation.
	Starting BB second half-transformation.
	Two-electron integral transformation complete.
	(OO|OV)...
	Starting AA second half-transformation.
	Starting AB second half-transformation.
	Starting BB second half-transformation.
	Two-electron integral transformation complete.
	(OO|VV)...
	Starting AA second half-transformation.
	Starting AB second half-transformation.
	Starting BB second half-transformation.
	Two-electron integral transformation complete.
	(OV|OO)...
	Starting AA/AB first half-transformation.
	Sorting AA/AB half-transformed integrals.
	Starting BB first half-transformation.
	Sorting BB half-transformed integrals.
	First half integral transformation complete.
	Starting AA second half-transformation.
	Starting AB second half-transformation.
	Starting BB second half-transformation.
	Two-electron integral transformation complete.
	(OV|OV)...
	Starting AA second half-transformation.
	Starting AB second half-transformation.
	Starting BB second half-transformation.
	Two-electron integral transformation complete.
	(OV|VV)...
	Starting AA second half-transformation.
	Starting AB second half-transformation.
	Starting BB second half-transformation.
	Two-electron integral transformation complete.
	(VV|OO)...
	Starting AA/AB first half-transformation.
	Sorting AA/AB half-transformed integrals.
	Starting BB first half-transformation.
	Sorting BB half-transformed integrals.
	First half integral transformation complete.
	Starting AA second half-transformation.
	Starting AB second half-transformation.
	Starting BB second half-transformation.
	Two-electron integral transformation complete.
	(VV|OV)...
	Starting AA second half-transformation.
	Starting AB second half-transformation.
	Starting BB second half-transformation.
	Two-electron integral transformation complete.
	(VV|VV)...
	Starting AA second half-transformation.
	Starting AB second half-transformation.
	Starting BB second half-transformation.
	Two-electron integral transformation complete.
	Frozen core energy     =   -103.66532154327055

	Size of irrep 0 of <AB|CD> integrals:    105.637 (MW) /    845.098 (MB)
	Size of irrep 1 of <AB|CD> integrals:     85.101 (MW) /    680.805 (MB)
	Total:                                   190.738 (MW) /   1525.903 (MB)

	Size of irrep 0 of <ab|cd> integrals:    108.181 (MW) /    865.446 (MB)
	Size of irrep 1 of <ab|cd> integrals:     86.490 (MW) /    691.920 (MB)
	Total:                                   194.671 (MW) /   1557.366 (MB)

	Size of irrep 0 of <Ab|Cd> integrals:    435.849 (MW) /   3486.793 (MB)
	Size of irrep 1 of <Ab|Cd> integrals:    343.176 (MW) /   2745.405 (MB)
	Total:                                   779.025 (MW) /   6232.198 (MB)

	Size of irrep 0 of <IA|BC> integrals:     14.320 (MW) /    114.562 (MB)
	Size of irrep 1 of <IA|BC> integrals:      9.188 (MW) /     73.505 (MB)
	Total:                                    23.508 (MW) /    188.067 (MB)

	Size of irrep 0 of <ia|bc> integrals:     11.992 (MW) /     95.933 (MB)
	Size of irrep 1 of <ia|bc> integrals:      7.886 (MW) /     63.091 (MB)
	Total:                                    19.878 (MW) /    159.024 (MB)

	Size of irrep 0 of <Ia|Bc> integrals:     14.510 (MW) /    116.076 (MB)
	Size of irrep 1 of <Ia|Bc> integrals:      9.244 (MW) /     73.952 (MB)
	Total:                                    23.753 (MW) /    190.028 (MB)

	Size of irrep 0 of <iA|bC> integrals:     11.837 (MW) /     94.698 (MB)
	Size of irrep 1 of <iA|bC> integrals:      7.836 (MW) /     62.689 (MB)
	Total:                                    19.673 (MW) /    157.387 (MB)

	Size of irrep 0 of tIjAb amplitudes:       0.438 (MW) /      3.507 (MB)
	Size of irrep 1 of tIjAb amplitudes:       0.167 (MW) /      1.334 (MB)
	Total:                                     0.605 (MW) /      4.841 (MB)

	Nuclear Rep. energy          =     26.38756985801245
	SCF energy                   =   -113.30107982276830
	One-electron energy          =    -63.39176060058475
	Two-electron (AA) energy     =      6.64154201907252
	Two-electron (BB) energy     =      4.66923672007573
	Two-electron (AB) energy     =     16.05765372392671
	Two-electron energy          =     27.36843246307495
	Reference energy             =   -113.30107982276789

*** tstop() called on cqc05 at Thu Aug 20 20:55:08 2020
Module time:
	user time   =      93.52 seconds =       1.56 minutes
	system time =      45.78 seconds =       0.76 minutes
	total time  =        220 seconds =       3.67 minutes
Total time:
	user time   =     194.30 seconds =       3.24 minutes
	system time =      52.33 seconds =       0.87 minutes
	total time  =        325 seconds =       5.42 minutes

*** tstart() called on cqc05
*** at Thu Aug 20 20:55:08 2020

            **************************
            *                        *
            *        CCENERGY        *
            *                        *
            **************************

    Nuclear Rep. energy (wfn)     =   26.387569858012455
    SCF energy          (wfn)     = -113.301079822768301
    Reference energy    (file100) = -113.301079822767889

    Input parameters:
    -----------------
    Wave function   =     CCSD
    Reference wfn   =     UHF
    Brueckner       =     No
    Memory (Mbytes) =     250000.0
    Maxiter         =     50
    R_Convergence   =     1.0e-07
    E_Convergence   =     1.0e-06
    Restart         =     Yes
    DIIS            =     Yes
    AO Basis        =     NONE
    ABCD            =     NEW
    Cache Level     =     2
    Cache Type      =     LRU
    Print Level     =     1
    Num. of threads =     4
    # Amps to Print =     10
    Print MP2 Amps? =     No
    Analyze T2 Amps =     No
    Print Pair Ener =     No
    Local CC        =     No
    SCS-MP2         =     False
    SCSN-MP2        =     False
    SCS-CCSD        =     False

MP2 correlation energy -0.3985400866431948
                Solving CC Amplitude Equations
                ------------------------------
  Iter             Energy              RMS        T1Diag      D1Diag    New D1Diag    D2Diag
  ----     ---------------------    ---------   ----------  ----------  ----------   --------
     0        -0.398540086643207    0.000e+00    0.000000    0.000000    0.000000    0.000000
     1        -0.384585065040320    9.596e-02    0.023346    0.000000    0.000000    0.000000
     2        -0.397452863130350    3.267e-02    0.022339    0.000000    0.000000    0.000000
     3        -0.401044486967340    1.885e-02    0.028442    0.000000    0.000000    0.000000
     4        -0.400665609254448    6.024e-03    0.030380    0.000000    0.000000    0.000000
     5        -0.400683018795166    3.164e-03    0.031601    0.000000    0.000000    0.000000
     6        -0.400707994764079    1.236e-03    0.031929    0.000000    0.000000    0.000000
     7        -0.400706093530270    5.397e-04    0.031994    0.000000    0.000000    0.000000
     8        -0.400712402042438    1.978e-04    0.032016    0.000000    0.000000    0.000000
     9        -0.400713530797852    6.753e-05    0.032018    0.000000    0.000000    0.000000

      * MP2 total energy                      = -113.699619909411084
      * CCSD total energy                     = -113.701791481191776
*** Psi4 exiting successfully. Buy a developer a beer!
