                               Psi4 1.2a1.dev938

  ==> Input File <==

--------------------------------------------------------------------------
# Any line starting with the # character is a comment line
memory 250000 mb
molecule molecule{
0 2
O          0.0000000000        0.0000000000       -0.0574567159
H          0.0000000000        0.0000000000        0.9120314505
}

set {
  reference uhf
  basis aug-cc-pv(5+d)z
  scf_type OUT_OF_CORE
  freeze_core true
}

energy('ccsd')
--------------------------------------------------------------------------

    Molecular point group: c2v

    Geometry (in Angstrom), charge = 0, multiplicity = 2:

       Center              X                  Y                   Z               Mass
    ------------   -----------------  -----------------  -----------------  -----------------
           O          0.000000000000     0.000000000000    -0.057465706258    15.994914619560
           H          0.000000000000     0.000000000000     0.912022460142     1.007825032070

  Charge       = 0
  Multiplicity = 2
  Basis Set: AUG-CC-PV(5+D)Z
    Blend: AUG-CC-PV(5+D)Z

    Orbital Energies (a.u.)
    -----------------------

    Alpha Occupied:

       1A1   -20.637776     2A1    -1.389099     3A1    -0.682883
       1B2    -0.658914     1B1    -0.561768

    Alpha Virtual:

       4A1     0.024018     5A1     0.088832     2B2     0.103647
       2B1     0.109042     6A1     0.137349     3B2     0.179202
       7A1     0.182459     3B1     0.182476     8A1     0.286034
       9A1     0.399462     1A2     0.400263    10A1     0.421467
       4B2     0.452913     4B1     0.467993     5B2     0.474826
       5B1     0.485356    11A1     0.487542    12A1     0.515104
       2A2     0.528906    13A1     0.529205     6B2     0.549124
       6B1     0.559194    14A1     0.659608     7B2     0.971449
       7B1     0.974903     8B2     0.975474     8B1     0.988881
      15A1     0.997871    16A1     1.078168     9B2     1.126271
       9B1     1.138837    17A1     1.139734     3A2     1.167094
      18A1     1.170085     4A2     1.206620    19A1     1.208037
      10B2     1.244333    20A1     1.252704    10B1     1.253178
      11B2     1.279509    11B1     1.279580     5A2     1.331793
      21A1     1.332101    22A1     1.389084    12B2     1.479025
      12B1     1.508912    23A1     1.710164    13B2     1.856104
      13B1     1.895067    24A1     2.214955     6A2     2.279507
      25A1     2.280816    14B2     2.305630    14B1     2.320377
       7A2     2.567972    26A1     2.567972    27A1     2.622214
      15B2     2.632994    15B1     2.655886    28A1     2.708817
      16B2     2.830667    16B1     2.830710    17B2     2.912365
      17B1     2.914688    29A1     2.917252    18B2     2.928612
       8A2     2.933384    30A1     2.943688    18B1     2.950999
       9A2     3.054881    31A1     3.054901    32A1     3.122722
      10A2     3.122725    33A1     3.124676    11A2     3.178609
      34A1     3.178646    19B2     3.310473    19B1     3.332532
      20B2     3.340633    20B1     3.340738    35A1     3.431200
      21B2     3.533633    21B1     3.556966    36A1     3.637923
      12A2     3.815615    37A1     3.817322    38A1     4.290474
      22B2     4.547323    22B1     4.580135    23B2     4.646523
      23B1     4.646632    24B2     4.718957    24B1     4.773828
      39A1     5.025967    13A2     5.398108    40A1     5.398309
      41A1     5.637765    25B2     5.797824    25B1     5.824372
      14A2     5.911191    42A1     5.911368    26B2     6.143417
      26B1     6.164935    27B2     6.185735    27B1     6.185735
      43A1     6.213865    15A2     6.452965    44A1     6.452965
      28B2     6.658441    28B1     6.703555    45A1     6.866743
      46A1     7.086092    16A2     7.086194    47A1     7.102783
      29B2     7.146641    29B1     7.147907    30B2     7.181581
      17A2     7.188245    48A1     7.194022    30B1     7.211234
      31B2     7.232093    31B1     7.235472    32B2     7.582802
      32B1     7.582828    49A1     7.702785    18A2     7.704106
      50A1     7.819148    19A2     7.905517    51A1     7.905954
      33B2     8.468417    33B1     8.507287    52A1     8.623013
      53A1     8.833219    34B2     9.078315    34B1     9.123289
      20A2     9.362246    54A1     9.362721    55A1    10.255239
      35B2    10.440196    35B1    10.487559    56A1    12.763122
      36B2    12.968406    36B1    12.968407    21A2    13.133951
      57A1    13.133951    58A1    13.491363    22A2    13.491502
      37B2    13.868578    37B1    13.868581    59A1    14.073615
      60A1    14.125775    23A2    14.125779    38B2    14.177814
      38B1    14.197304    39B2    14.458223    39B1    14.471821
      61A1    14.654986    62A1    15.530930    24A2    15.621543
      63A1    15.623829    40B2    15.932711    40B1    15.974743
      41B2    16.211555    41B1    16.211555    25A2    16.345616
      64A1    16.345616    42B2    16.779077    42B1    16.826870
      43B2    16.851237    43B1    16.851248    65A1    16.918689
      44B2    17.740637    44B1    17.772758    66A1    17.851538
      26A2    17.854808    67A1    18.045703    45B2    18.161425
      45B1    18.192131    68A1    18.548608    69A1    19.068552
      27A2    19.068554    46B2    19.177176    46B1    19.177186
      47B2    19.217208    47B1    19.217219    70A1    19.482787
      28A2    19.568881    71A1    19.578245    29A2    19.952691
      72A1    19.953694    48B2    20.441293    48B1    20.495978
      73A1    21.029352    30A2    22.393313    74A1    22.393815
      49B2    23.211635    49B1    23.261586    50B2    23.873528
      50B1    23.920669    75A1    25.890106    76A1    26.224309
      77A1    65.001100

    Beta Occupied:

       1A1   -20.598085     2A1    -1.230644     3A1    -0.638972
       1B1    -0.513722

    Beta Virtual:

       4A1     0.024891     1B2     0.056117     5A1     0.089780
       2B1     0.110098     6A1     0.140457     2B2     0.148012
       3B1     0.182403     7A1     0.184213     3B2     0.190418
       8A1     0.291087     1A2     0.405406     9A1     0.405451
      10A1     0.424172     4B1     0.471078     4B2     0.478995
       5B1     0.485618    11A1     0.490637     5B2     0.508757
      12A1     0.520440     2A2     0.529218    13A1     0.529464
       6B1     0.560769     6B2     0.579257    14A1     0.669244
       7B1     0.978709     7B2     0.978726     8B1     0.989497
       8B2     1.002733    15A1     1.004435    16A1     1.084301
       9B2     1.130809     9B1     1.138282    17A1     1.148724
       3A2     1.172854    18A1     1.173491     4A2     1.229404
      19A1     1.229569    10B2     1.252611    10B1     1.253495
      20A1     1.259434    11B2     1.280068    11B1     1.280070
       5A2     1.345230    21A1     1.345723    22A1     1.399204
      12B1     1.514728    12B2     1.534664    23A1     1.718529
      13B1     1.905840    13B2     1.934478    24A1     2.222286
       6A2     2.287306    25A1     2.287695    14B2     2.311171
      14B1     2.318608    26A1     2.574276     7A2     2.574276
      27A1     2.633883    15B2     2.653338    15B1     2.658208
      28A1     2.717429    16B1     2.850420    16B2     2.850422
      17B2     2.922744    17B1     2.923133    29A1     2.933052
       8A2     2.940272    18B2     2.944293    30A1     2.948075
      18B1     2.952099     9A2     3.068525    31A1     3.068651
      32A1     3.124681    10A2     3.124683    33A1     3.133724
      11A2     3.233645    34A1     3.234630    19B1     3.336569
      19B2     3.338504    20B1     3.342149    20B2     3.342294
      35A1     3.444815    21B2     3.545517    21B1     3.558786
      36A1     3.649047    12A2     3.832089    37A1     3.832376
      38A1     4.299276    22B2     4.580625    22B1     4.586370
      23B2     4.649918    23B1     4.649926    24B1     4.788595
      24B2     4.803409    39A1     5.043725    40A1     5.403747
      13A2     5.403768    41A1     5.645201    25B2     5.816589
      25B1     5.826766    14A2     5.918529    42A1     5.918535
      26B2     6.151498    26B1     6.165168    27B2     6.197315
      27B1     6.197315    43A1     6.223909    44A1     6.462827
      15A2     6.462827    28B2     6.702152    28B1     6.712889
      45A1     6.889376    46A1     7.110582    16A2     7.110795
      47A1     7.112864    29B2     7.166388    29B1     7.167356
      30B2     7.194116    17A2     7.198922    48A1     7.201257
      30B1     7.216540    31B2     7.251758    31B1     7.252214
      32B2     7.616553    32B1     7.616555    49A1     7.734868
      18A2     7.735490    50A1     7.827059    19A2     7.947072
      51A1     7.947698    33B2     8.489810    33B1     8.511589
      52A1     8.643214    53A1     8.845940    34B2     9.113425
      34B1     9.131794    20A2     9.401335    54A1     9.401435
      55A1    10.265794    35B2    10.485179    35B1    10.497766
      56A1    12.792220    36B2    12.968687    36B1    12.968687
      57A1    13.134119    21A2    13.134119    58A1    13.494320
      22A2    13.494399    37B2    13.870296    37B1    13.870297
      59A1    14.079847    60A1    14.124504    23A2    14.124510
      38B2    14.183293    38B1    14.197304    39B2    14.461813
      39B1    14.471768    61A1    14.657696    62A1    15.536770
      24A2    15.627222    63A1    15.628361    40B2    15.970955
      40B1    15.983177    41B2    16.236771    41B1    16.236771
      25A2    16.366346    64A1    16.366346    42B2    16.821831
      42B1    16.836772    43B2    16.867751    43B1    16.867754
      65A1    16.922264    44B2    17.751212    44B1    17.774589
      66A1    17.868054    26A2    17.869626    67A1    18.053958
      45B2    18.176104    45B1    18.195313    68A1    18.572301
      69A1    19.107023    27A2    19.107023    46B2    19.210690
      46B1    19.210692    47B2    19.262250    47B1    19.262251
      70A1    19.499858    28A2    19.593767    71A1    19.597115
      29A2    19.982627    72A1    19.982940    48B2    20.474832
      48B1    20.506049    73A1    21.046319    30A2    22.439374
      74A1    22.439468    49B2    23.242883    49B1    23.269888
      50B2    23.906627    50B1    23.929852    75A1    25.898831
      76A1    26.234622    77A1    65.016554

    Final Occupation by Irrep:
             A1    A2    B1    B2
    DOCC [     3,    0,    1,    0 ]
    SOCC [     0,    0,    0,    1 ]

  Energy converged.

  @UHF Final Energy:   -75.42789975825430

   => Energetics <=

    Nuclear Repulsion Energy =              4.3666522351066419
    One-Electron Energy =                -112.6772393309343272
    Two-Electron Energy =                  32.8826873375733868
    PCM Polarization Energy =               0.0000000000000000
    Total Energy =                        -75.4278997582542985

    Alert: EFP and PCM quantities not currently incorporated into SCF psivars.
  UHF NO Occupations:
  HONO-2 :    2 A1 1.9991995
  HONO-1 :    3 A1 1.9978501
  HONO-0 :    1 B2 1.0000000
  LUNO+0 :    4 A1 0.0021499
  LUNO+1 :    5 A1 0.0008005
  LUNO+2 :    2 B1 0.0006296
  LUNO+3 :    6 A1 0.0000013

Properties will be evaluated at   0.000000,   0.000000,   0.000000 Bohr

Properties computed using the SCF density matrix

  Nuclear Dipole Moment: (a.u.)
     X:     0.0000      Y:     0.0000      Z:     0.8547

  Electronic Dipole Moment: (a.u.)
     X:     0.0000      Y:     0.0000      Z:    -0.1634

  Dipole Moment: (a.u.)
     X:     0.0000      Y:     0.0000      Z:     0.6913     Total:     0.6913

  Dipole Moment: (Debye)
     X:     0.0000      Y:     0.0000      Z:     1.7571     Total:     1.7571

*** tstop() called on cqc05 at Fri Aug 21 04:28:58 2020
Module time:
	user time   =      40.32 seconds =       0.67 minutes
	system time =       2.27 seconds =       0.04 minutes
	total time  =         42 seconds =       0.70 minutes
Total time:
	user time   =      40.32 seconds =       0.67 minutes
	system time =       2.27 seconds =       0.04 minutes
	total time  =         42 seconds =       0.70 minutes

*** tstart() called on cqc05
*** at Fri Aug 21 04:28:58 2020

	Wfn Parameters:
	--------------------
	Wavefunction         = CCSD
	Number of irreps     = 4
	Number of MOs        = 207
	Number of active MOs = 206
	AO-Basis             = NONE
	Semicanonical        = false
	Reference            = UHF
	Print Level          = 1

	IRREP	# MOs	# FZDC	# DOCC	# SOCC	# VIRT	# FZVR
	-----	-----	------	------	------	------	------
	 A1	   77	    1	    2	    0	    74	    0
	 A2	   30	    0	    0	    0	    30	    0
	 B1	   50	    0	    1	    0	    49	    0
	 B2	   50	    0	    0	    1	    49	    0
	Transforming integrals...
	IWL integrals will be deleted.
	(OO|OO)...
	Presorting SO-basis two-electron integrals.
	Sorting File: SO Ints (nn|nn) nbuckets = 1
	Transforming the one-electron integrals and constructing Fock matrices
	Starting AA/AB first half-transformation.
	Sorting AA/AB half-transformed integrals.
	Starting BB first half-transformation.
	Sorting BB half-transformed integrals.
	First half integral transformation complete.
	Starting AA second half-transformation.
	Starting AB second half-transformation.
	Starting BB second half-transformation.
	Two-electron integral transformation complete.
	(OO|OV)...
	Starting AA second half-transformation.
	Starting AB second half-transformation.
	Starting BB second half-transformation.
	Two-electron integral transformation complete.
	(OO|VV)...
	Starting AA second half-transformation.
	Starting AB second half-transformation.
	Starting BB second half-transformation.
	Two-electron integral transformation complete.
	(OV|OO)...
	Starting AA/AB first half-transformation.
	Sorting AA/AB half-transformed integrals.
	Starting BB first half-transformation.
	Sorting BB half-transformed integrals.
	First half integral transformation complete.
	Starting AA second half-transformation.
	Starting AB second half-transformation.
	Starting BB second half-transformation.
	Two-electron integral transformation complete.
	(OV|OV)...
	Starting AA second half-transformation.
	Starting AB second half-transformation.
	Starting BB second half-transformation.
	Two-electron integral transformation complete.
	(OV|VV)...
	Starting AA second half-transformation.
	Starting AB second half-transformation.
	Starting BB second half-transformation.
	Two-electron integral transformation complete.
	(VV|OO)...
	Starting AA/AB first half-transformation.
	Sorting AA/AB half-transformed integrals.
	Starting BB first half-transformation.
	Sorting BB half-transformed integrals.
	First half integral transformation complete.
	Starting AA second half-transformation.
	Starting AB second half-transformation.
	Starting BB second half-transformation.
	Two-electron integral transformation complete.
	(VV|OV)...
	Starting AA second half-transformation.
	Starting AB second half-transformation.
	Starting BB second half-transformation.
	Two-electron integral transformation complete.
	(VV|VV)...
	Starting AA second half-transformation.
	Starting AB second half-transformation.
	Starting BB second half-transformation.
	Two-electron integral transformation complete.
	Frozen core energy     =    -60.19856358987241

	Size of irrep 0 of <AB|CD> integrals:     30.118 (MW) /    240.945 (MB)
	Size of irrep 1 of <AB|CD> integrals:     21.354 (MW) /    170.829 (MB)
	Size of irrep 2 of <AB|CD> integrals:     25.969 (MW) /    207.754 (MB)
	Size of irrep 3 of <AB|CD> integrals:     25.969 (MW) /    207.754 (MB)
	Total:                                   103.410 (MW) /    827.282 (MB)

	Size of irrep 0 of <ab|cd> integrals:     30.658 (MW) /    245.267 (MB)
	Size of irrep 1 of <ab|cd> integrals:     21.809 (MW) /    174.471 (MB)
	Size of irrep 2 of <ab|cd> integrals:     26.276 (MW) /    210.207 (MB)
	Size of irrep 3 of <ab|cd> integrals:     26.729 (MW) /    213.831 (MB)
	Total:                                   105.472 (MW) /    843.776 (MB)

	Size of irrep 0 of <Ab|Cd> integrals:    126.046 (MW) /   1008.364 (MB)
	Size of irrep 1 of <Ab|Cd> integrals:     86.323 (MW) /    690.581 (MB)
	Size of irrep 2 of <Ab|Cd> integrals:    104.489 (MW) /    835.914 (MB)
	Size of irrep 3 of <Ab|Cd> integrals:    105.391 (MW) /    843.126 (MB)
	Total:                                   422.248 (MW) /   3377.986 (MB)

	Size of irrep 0 of <IA|BC> integrals:      2.750 (MW) /     21.998 (MB)
	Size of irrep 1 of <IA|BC> integrals:      1.460 (MW) /     11.682 (MB)
	Size of irrep 2 of <IA|BC> integrals:      2.059 (MW) /     16.470 (MB)
	Size of irrep 3 of <IA|BC> integrals:      2.059 (MW) /     16.470 (MB)
	Total:                                     8.328 (MW) /     66.621 (MB)

	Size of irrep 0 of <ia|bc> integrals:      2.222 (MW) /     17.773 (MB)
	Size of irrep 1 of <ia|bc> integrals:      1.027 (MW) /      8.219 (MB)
	Size of irrep 2 of <ia|bc> integrals:      1.763 (MW) /     14.107 (MB)
	Size of irrep 3 of <ia|bc> integrals:      1.344 (MW) /     10.754 (MB)
	Total:                                     6.357 (MW) /     50.852 (MB)

	Size of irrep 0 of <Ia|Bc> integrals:      2.773 (MW) /     22.185 (MB)
	Size of irrep 1 of <Ia|Bc> integrals:      1.477 (MW) /     11.818 (MB)
	Size of irrep 2 of <Ia|Bc> integrals:      2.065 (MW) /     16.519 (MB)
	Size of irrep 3 of <Ia|Bc> integrals:      2.094 (MW) /     16.754 (MB)
	Total:                                     8.409 (MW) /     67.276 (MB)

	Size of irrep 0 of <iA|bC> integrals:      2.212 (MW) /     17.694 (MB)
	Size of irrep 1 of <iA|bC> integrals:      1.013 (MW) /      8.102 (MB)
	Size of irrep 2 of <iA|bC> integrals:      1.758 (MW) /     14.065 (MB)
	Size of irrep 3 of <iA|bC> integrals:      1.314 (MW) /     10.512 (MB)
	Total:                                     6.297 (MW) /     50.373 (MB)

	Size of irrep 0 of tIjAb amplitudes:       0.056 (MW) /      0.449 (MB)
	Size of irrep 1 of tIjAb amplitudes:       0.009 (MW) /      0.074 (MB)
	Size of irrep 2 of tIjAb amplitudes:       0.041 (MW) /      0.327 (MB)
	Size of irrep 3 of tIjAb amplitudes:       0.021 (MW) /      0.164 (MB)
	Total:                                     0.127 (MW) /      1.015 (MB)

	Nuclear Rep. energy          =      4.36665223510664
	SCF energy                   =    -75.42789975825430
	One-electron energy          =    -33.51597379804508
	Two-electron (AA) energy     =      3.69857565064831
	Two-electron (BB) energy     =      1.71980781843945
	Two-electron (AB) energy     =      8.50160192546884
	Two-electron energy          =     13.91998539455660
	Reference energy             =    -75.42789975825426

*** tstop() called on cqc05 at Fri Aug 21 04:30:00 2020
Module time:
	user time   =      38.21 seconds =       0.64 minutes
	system time =      23.44 seconds =       0.39 minutes
	total time  =         62 seconds =       1.03 minutes
Total time:
	user time   =      78.53 seconds =       1.31 minutes
	system time =      25.71 seconds =       0.43 minutes
	total time  =        104 seconds =       1.73 minutes

*** tstart() called on cqc05
*** at Fri Aug 21 04:30:00 2020

            **************************
            *                        *
            *        CCENERGY        *
            *                        *
            **************************

    Nuclear Rep. energy (wfn)     =    4.366652235106642
    SCF energy          (wfn)     =  -75.427899758254298
    Reference energy    (file100) =  -75.427899758254256

    Input parameters:
    -----------------
    Wave function   =     CCSD
    Reference wfn   =     UHF
    Brueckner       =     No
    Memory (Mbytes) =     250000.0
    Maxiter         =     50
    R_Convergence   =     1.0e-07
    E_Convergence   =     1.0e-06
    Restart         =     Yes
    DIIS            =     Yes
    AO Basis        =     NONE
    ABCD            =     NEW
    Cache Level     =     2
    Cache Type      =     LRU
    Print Level     =     1
    Num. of threads =     4
    # Amps to Print =     10
    Print MP2 Amps? =     No
    Analyze T2 Amps =     No
    Print Pair Ener =     No

      * MP2 total energy                      =  -75.654133494687983
      * CCSD total energy                     =  -75.663917636331774
*** Psi4 exiting successfully. Buy a developer a beer!
