                               Psi4 1.2a1.dev938

  ==> Input File <==

--------------------------------------------------------------------------
# Any line starting with the # character is a comment line
memory 250000 mb
molecule molecule{
0 2
O          0.0000000000        0.0000000000       -0.0574567159
H          0.0000000000        0.0000000000        0.9120314505
}

set {
  reference uhf
  basis aug-cc-pv(6+d)z
  scf_type OUT_OF_CORE
  freeze_core true
}

energy('ccsd')
--------------------------------------------------------------------------

    Molecular point group: c2v

    Geometry (in Angstrom), charge = 0, multiplicity = 2:

       Center              X                  Y                   Z               Mass
    ------------   -----------------  -----------------  -----------------  -----------------
           O          0.000000000000     0.000000000000    -0.057465706258    15.994914619560
           H          0.000000000000     0.000000000000     0.912022460142     1.007825032070

  Charge       = 0
  Multiplicity = 2
  Basis Set: AUG-CC-PV(6+D)Z
    Blend: AUG-CC-PV(6+D)Z

    Orbital Energies (a.u.)
    -----------------------

    Alpha Occupied:

       1A1   -20.637710     2A1    -1.389078     3A1    -0.682877
       1B1    -0.658917     1B2    -0.561770

    Alpha Virtual:

       4A1     0.021287     5A1     0.066995     2B1     0.076589
       2B2     0.080137     6A1     0.116729     7A1     0.156286
       3B1     0.158664     3B2     0.161763     8A1     0.229831
       9A1     0.336048    10A1     0.345668     1A2     0.345919
       4B1     0.358036     4B2     0.373042    11A1     0.399985
       5B1     0.407993     5B2     0.414753    12A1     0.418626
       2A2     0.423928    13A1     0.424478     6B1     0.428651
       6B2     0.433899    14A1     0.558864    15A1     0.714672
       7B1     0.795092     7B2     0.795104     8B1     0.829776
       8B2     0.842575    16A1     0.847836    17A1     0.903930
       9B1     0.914985     9B2     0.924086     3A2     0.943221
      18A1     0.943957    19A1     1.021487    10B1     1.037585
       4A2     1.046027    20A1     1.046662    10B2     1.047783
       5A2     1.076054    21A1     1.076427    11B1     1.080169
      11B2     1.080247    12B1     1.115461    12B2     1.146453
      22A1     1.208167    23A1     1.346649    13B1     1.440953
      13B2     1.461025    24A1     1.662155    25A1     1.826315
       6A2     1.858334    26A1     1.860392    14B1     1.918584
      14B2     1.933228    27A1     1.962886     7A2     1.984191
      28A1     1.984191    15B1     2.148042    15B2     2.163500
      16B1     2.215004    16B2     2.215037    29A1     2.257864
      17B1     2.275757     8A2     2.284071    30A1     2.288551
      17B2     2.290464    18B1     2.324900    18B2     2.325148
      31A1     2.336883     9A2     2.336951    10A2     2.350653
      32A1     2.350655    19B1     2.401823    19B2     2.401836
      33A1     2.471573    20B1     2.545042    20B2     2.561250
      34A1     2.563065    11A2     2.563894    35A1     2.683417
      21B1     2.782257    21B2     2.812571    36A1     2.885630
      22B1     2.890388    12A2     2.918450    37A1     2.919366
      22B2     2.938220    38A1     3.073888    39A1     3.454134
      23B1     3.698368    23B2     3.727477    24B1     3.859834
      24B2     3.859840    40A1     4.050389    13A2     4.072705
      41A1     4.079151    25B1     4.178297    25B2     4.178297
      42A1     4.477583    14A2     4.504757    43A1     4.504757
      26B1     4.545646    26B2     4.564099    27B1     4.703820
      27B2     4.723111    28B1     4.749304    28B2     4.749304
      44A1     4.782175    15A2     4.782286    45A1     4.818917
      16A2     4.854925    46A1     4.857919    29B1     4.934130
      29B2     4.934145    47A1     5.025467    30B1     5.047739
      30B2     5.071431    31B1     5.162897    48A1     5.188252
      17A2     5.188257    31B2     5.191128    32B1     5.268683
      32B2     5.269062    49A1     5.289479    18A2     5.299264
      33B1     5.322712    50A1     5.323724    33B2     5.346899
      19A2     5.538997    51A1     5.538998    34B1     5.608110
      34B2     5.608164    35B1     5.755882    35B2     5.755893
      52A1     5.756312    20A2     5.815460    53A1     5.821244
      54A1     5.944500    21A2     5.944562    55A1     6.298471
      36B1     6.381918    36B2     6.428899    56A1     6.547908
      57A1     7.072918    37B1     7.173130    37B2     7.208242
      22A2     7.542373    58A1     7.542783    23A2     7.562923
      59A1     7.562936    38B1     7.870395    38B2     7.924652
      60A1     7.971260    39B1     8.380534    39B2     8.414689
      40B1     8.844163    40B2     8.844182    61A1     9.051606
      24A2     9.051770    62A1     9.227403    25A2     9.372105
      63A1     9.372105    64A1     9.439876    41B1     9.504667
      41B2     9.533840    42B1     9.582816    42B2     9.582816
      26A2     9.637183    65A1     9.637254    66A1     9.863578
      43B1    10.056199    43B2    10.056200    27A2    10.400792
      67A1    10.400792    44B1    10.707121    68A1    10.725717
      28A2    10.725757    44B2    10.734199    69A1    10.805133
      45B1    10.831738    45B2    10.831738    46B1    10.877795
      46B2    10.906803    47B1    10.937783    47B2    10.937926
      70A1    11.092031    29A2    11.092041    71A1    11.122191
      30A2    11.195636    72A1    11.196049    48B1    11.200015
      48B2    11.231130    73A1    11.439876    49B1    11.807761
      49B2    11.807768    31A2    12.277022    74A1    12.277293
      50B1    12.634303    50B2    12.634453    51B1    12.751183
      51B2    12.790404    75A1    13.029312    32A2    13.029313
      52B1    13.327210    52B2    13.327281    76A1    13.499163
      77A1    13.623004    33A2    13.625158    53B1    13.812107
      53B2    13.865004    78A1    14.152131    79A1    14.327435
      54B1    14.493023    54B2    14.524473    34A2    14.714173
      80A1    14.714872    35A2    15.369663    81A1    15.370098
      55B1    15.955881    55B2    16.001810    82A1    16.189669
      56B1    17.483511    56B2    17.483511    57B1    17.737082
      57B2    17.775176    36A2    18.113290    83A1    18.113290
      84A1    18.914117    58B1    19.559555    58B2    19.559556
      85A1    20.075641    37A2    20.315714    86A1    20.315715
      38A2    20.396299    87A1    20.396403    59B1    21.164200
      59B2    21.180721    60B1    21.202467    60B2    21.202861
      61B1    21.453453    61B2    21.479238    88A1    21.557897
      39A2    21.558356    89A1    21.621021    90A1    22.393146
      91A1    22.719384    40A2    22.719384    62B1    22.821600
      62B2    22.821600    92A1    22.995107    41A2    22.995123
      63B1    23.164257    42A2    23.213015    93A1    23.213015
      63B2    23.215776    64B1    23.978077    64B2    23.978140
      94A1    24.034347    65B1    24.175501    65B2    24.209984
      66B1    24.327323    66B2    24.327489    95A1    24.570518
      43A2    25.317441    96A1    25.317917    67B1    26.202159
      67B2    26.227273    97A1    26.276267    44A2    26.276502
      68B1    26.807616    68B2    26.807616    98A1    26.886745
      99A1    26.960990    45A2    26.960990    69B1    27.078515
      69B2    27.100749    70B1    27.201246    70B2    27.201275
     100A1    27.460638   101A1    27.829902    46A2    27.831226
     102A1    28.024162    71B1    28.252311    71B2    28.300709
      72B1    28.569677    72B2    28.569732   103A1    28.888583
      47A2    29.797200   104A1    29.797598   105A1    31.489085
      48A2    31.489085    73B1    31.718932    73B2    31.718940
     106A1    33.048309    49A2    33.055025    74B1    33.105671
      74B2    33.159397   107A1    33.246807    75B1    33.741570
      75B2    33.793692   108A1    34.623931    50A2    35.063119
     109A1    35.063461    76B1    35.878396    76B2    35.898592
      77B1    39.111614    77B2    39.144016   110A1    39.286003
     111A1    41.414934   112A1   105.737501

    Beta Occupied:

       1A1   -20.598046     2A1    -1.230625     3A1    -0.638968
       1B2    -0.513728

    Beta Virtual:

       4A1     0.022032     1B1     0.049432     5A1     0.067434
       2B2     0.080720     2B1     0.115746     6A1     0.119737
       7A1     0.157365     3B2     0.161877     3B1     0.171637
       8A1     0.232304     9A1     0.341371     1A2     0.349201
      10A1     0.349316     4B2     0.376898     4B1     0.400985
      11A1     0.403166     5B2     0.414322    12A1     0.420699
       2A2     0.424293    13A1     0.424671     5B1     0.425118
       6B2     0.433923     6B1     0.443683    14A1     0.565807
      15A1     0.719658     7B1     0.797250     7B2     0.797252
       8B2     0.842141     8B1     0.849171    16A1     0.857418
      17A1     0.906477     9B1     0.917107     9B2     0.923354
       3A2     0.945176    18A1     0.945552    19A1     1.024833
      10B2     1.049206    10B1     1.050897     4A2     1.059629
      20A1     1.060132    11B2     1.080576    11B1     1.080598
       5A2     1.091911    21A1     1.092232    12B2     1.154450
      12B1     1.191755    22A1     1.216598    23A1     1.355112
      13B2     1.463341    13B1     1.470930    24A1     1.672365
      25A1     1.830226     6A2     1.862940    26A1     1.863689
      14B1     1.924482    14B2     1.932117    27A1     1.969616
       7A2     1.987508    28A1     1.987508    15B1     2.163772
      15B2     2.164664    16B1     2.225315    16B2     2.225316
      29A1     2.265700    17B1     2.282831     8A2     2.288660
      17B2     2.290687    30A1     2.291322    18B1     2.328397
      18B2     2.328505     9A2     2.341782    31A1     2.341790
      10A2     2.352063    32A1     2.352066    19B2     2.407280
      19B1     2.407282    33A1     2.473464    20B1     2.559639
      20B2     2.562740    34A1     2.617777    11A2     2.617885
      35A1     2.692988    21B1     2.815518    21B2     2.817062
      36A1     2.903523    12A2     2.930169    37A1     2.930615
      22B2     2.950227    22B1     2.965202    38A1     3.090592
      39A1     3.462785    23B2     3.733469    23B1     3.736083
      24B1     3.862950    24B2     3.862950    40A1     4.058163
      13A2     4.076371    41A1     4.079123    25B2     4.181838
      25B1     4.181838    42A1     4.485391    14A2     4.508710
      43A1     4.508710    26B1     4.554380    26B2     4.563804
      27B1     4.713393    27B2     4.724152    28B1     4.753132
      28B2     4.753132    44A1     4.787490    15A2     4.787541
      45A1     4.826545    16A2     4.866357    46A1     4.867957
      29B1     4.938785    29B2     4.938786    47A1     5.030263
      30B1     5.063125    30B2     5.073705    31B1     5.184838
      48A1     5.193283    17A2     5.193286    31B2     5.195164
      32B1     5.285071    32B2     5.285333    49A1     5.295692
      18A2     5.303000    50A1     5.323841    33B1     5.328359
      33B2     5.346993    19A2     5.553797    51A1     5.553797
      34B1     5.627920    34B2     5.627926    35B1     5.769172
      35B2     5.769174    52A1     5.773711    20A2     5.833208
      53A1     5.834136    21A2     6.000522    54A1     6.000551
      55A1     6.318882    36B1     6.431525    36B2     6.439181
      56A1     6.568443    57A1     7.087564    37B1     7.194656
      37B2     7.212628    22A2     7.562682    58A1     7.562759
      23A2     7.566514    59A1     7.566599    38B1     7.933663
      38B2     7.937285    60A1     7.979063    39B1     8.402876
      39B2     8.419526    40B1     8.849756    40B2     8.849759
      61A1     9.053860    24A2     9.053983    62A1     9.239334
      25A2     9.381792    63A1     9.381792    64A1     9.446504
      41B1     9.521032    41B2     9.536939    42B1     9.591071
      42B2     9.591071    65A1     9.641148    26A2     9.641169
      66A1     9.865249    43B1    10.056830    43B2    10.056831
      27A2    10.408240    67A1    10.408240    44B1    10.716325
      68A1    10.733325    28A2    10.733595    44B2    10.735452
      69A1    10.813535    45B1    10.849694    45B2    10.849694
      46B1    10.891591    46B2    10.909592    47B1    10.944136
      47B2    10.944228    70A1    11.105351    29A2    11.105355
      71A1    11.132654    30A2    11.200966    72A1    11.200988
      48B1    11.206812    48B2    11.231682    73A1    11.449856
      49B1    11.830795    49B2    11.830797    31A2    12.296349
      74A1    12.296444    50B1    12.667927    50B2    12.667945
      51B1    12.772778    51B2    12.795338    75A1    13.061991
      32A2    13.061991    52B1    13.351234    52B2    13.351248
      76A1    13.508340    77A1    13.653168    33A2    13.653927
      53B1    13.844003    53B2    13.873191    78A1    14.170216
      79A1    14.344095    54B1    14.507301    54B2    14.527259
      34A2    14.755752    80A1    14.755953    35A2    15.386724
      81A1    15.386892    55B1    15.985173    55B2    16.009237
      82A1    16.201777    56B1    17.483620    56B2    17.483620
      57B1    17.758764    57B2    17.780461    36A2    18.114435
      83A1    18.114435    84A1    18.920719    58B1    19.563241
      58B2    19.563242    85A1    20.082267    37A2    20.315646
      86A1    20.315646    38A2    20.401572    87A1    20.401635
      59B1    21.168384    59B2    21.181396    60B1    21.202730
      60B2    21.202988    61B1    21.462250    61B2    21.481233
      88A1    21.558212    39A2    21.558513    89A1    21.624495
      90A1    22.406204    91A1    22.738265    40A2    22.738265
      62B1    22.837737    62B2    22.837737    92A1    22.995236
      41A2    22.995247    63B1    23.208830    42A2    23.226266
      93A1    23.226266    63B2    23.226375    64B1    23.983109
      64B2    23.983132    94A1    24.042767    65B1    24.189443
      65B2    24.213353    66B1    24.331893    66B2    24.331981
      95A1    24.575048    43A2    25.324745    96A1    25.325030
      67B1    26.210658    67B2    26.229048    97A1    26.279810
      44A2    26.279951    68B1    26.834874    68B2    26.834874
      98A1    26.892811    99A1    26.983464    45A2    26.983464
      69B1    27.083865    69B2    27.101664    70B1    27.219605
      70B2    27.219613   100A1    27.468951   101A1    27.846004
      46A2    27.846743   102A1    28.033799    71B1    28.275134
      71B2    28.308013    72B1    28.607466    72B2    28.607475
     103A1    28.900867    47A2    29.822628   104A1    29.822773
     105A1    31.521985    48A2    31.521985    73B1    31.745115
      73B2    31.745117   106A1    33.073571    49A2    33.076819
      74B1    33.130708    74B2    33.167205   107A1    33.258123
      75B1    33.769373    75B2    33.801923   108A1    34.635482
      50A2    35.093521   109A1    35.093620    76B1    35.887936
      76B2    35.900455    77B1    39.126810    77B2    39.148187
     110A1    39.296771   111A1    41.415954   112A1   105.747230

    Final Occupation by Irrep:
             A1    A2    B1    B2
    DOCC [     3,    0,    0,    1 ]
    SOCC [     0,    0,    1,    0 ]

  Energy converged.

  @UHF Final Energy:   -75.42803129335240

   => Energetics <=

    Nuclear Repulsion Energy =              4.3666522351066419
    One-Electron Energy =                -112.6776496047326077
    Two-Electron Energy =                  32.8829660762735756
    PCM Polarization Energy =               0.0000000000000000
    Total Energy =                        -75.4280312933523902

    Alert: EFP and PCM quantities not currently incorporated into SCF psivars.
  UHF NO Occupations:
  HONO-2 :    2 A1 1.9991996
  HONO-1 :    3 A1 1.9978497
  HONO-0 :    1 B1 1.0000000
  LUNO+0 :    4 A1 0.0021503
  LUNO+1 :    5 A1 0.0008004
  LUNO+2 :    2 B2 0.0006297
  LUNO+3 :    6 A1 0.0000013

Properties will be evaluated at   0.000000,   0.000000,   0.000000 Bohr

Properties computed using the SCF density matrix

  Nuclear Dipole Moment: (a.u.)
     X:     0.0000      Y:     0.0000      Z:     0.8547

  Electronic Dipole Moment: (a.u.)
     X:     0.0000      Y:     0.0000      Z:    -0.1634

  Dipole Moment: (a.u.)
     X:     0.0000      Y:     0.0000      Z:     0.6913     Total:     0.6913

  Dipole Moment: (Debye)
     X:     0.0000      Y:     0.0000      Z:     1.7570     Total:     1.7570

*** tstop() called on cqc05 at Wed Aug 26 12:28:16 2020
Module time:
	user time   =     246.54 seconds =       4.11 minutes
	system time =      17.54 seconds =       0.29 minutes
	total time  =        340 seconds =       5.67 minutes
Total time:
	user time   =     246.54 seconds =       4.11 minutes
	system time =      17.54 seconds =       0.29 minutes
	total time  =        340 seconds =       5.67 minutes

*** tstart() called on cqc05
*** at Wed Aug 26 12:28:16 2020

	Wfn Parameters:
	--------------------
	Wavefunction         = CCSD
	Number of irreps     = 4
	Number of MOs        = 316
	Number of active MOs = 315
	AO-Basis             = NONE
	Semicanonical        = false
	Reference            = UHF
	Print Level          = 1

	IRREP	# MOs	# FZDC	# DOCC	# SOCC	# VIRT	# FZVR
	-----	-----	------	------	------	------	------
	 A1	   112	    1	    2	    0	    109	    0
	 A2	   50	    0	    0	    0	    50	    0
	 B1	   77	    0	    0	    1	    76	    0
	 B2	   77	    0	    1	    0	    76	    0
	Transforming integrals...
	IWL integrals will be deleted.
	(OO|OO)...
	Presorting SO-basis two-electron integrals.
	Sorting File: SO Ints (nn|nn) nbuckets = 1
	Transforming the one-electron integrals and constructing Fock matrices
	Starting AA/AB first half-transformation.
	Sorting AA/AB half-transformed integrals.
	Starting BB first half-transformation.
	Sorting BB half-transformed integrals.
	First half integral transformation complete.
	Starting AA second half-transformation.
	Starting AB second half-transformation.
	Starting BB second half-transformation.
	Two-electron integral transformation complete.
	(OO|OV)...
	Starting AA second half-transformation.
	Starting AB second half-transformation.
	Starting BB second half-transformation.
	Two-electron integral transformation complete.
	(OO|VV)...
	Starting AA second half-transformation.
	Starting AB second half-transformation.
	Starting BB second half-transformation.
	Two-electron integral transformation complete.
	(OV|OO)...
	Starting AA/AB first half-transformation.
	Sorting AA/AB half-transformed integrals.
	Starting BB first half-transformation.
	Sorting BB half-transformed integrals.
	First half integral transformation complete.
	Starting AA second half-transformation.
	Starting AB second half-transformation.
	Starting BB second half-transformation.
	Two-electron integral transformation complete.
	(OV|OV)...
	Starting AA second half-transformation.
	Starting AB second half-transformation.
	Starting BB second half-transformation.
	Two-electron integral transformation complete.
	(OV|VV)...
	Starting AA second half-transformation.
	Starting AB second half-transformation.
	Starting BB second half-transformation.
	Two-electron integral transformation complete.
	(VV|OO)...
	Starting AA/AB first half-transformation.
	Sorting AA/AB half-transformed integrals.
	Starting BB first half-transformation.
	Sorting BB half-transformed integrals.
	First half integral transformation complete.
	Starting AA second half-transformation.
	Starting AB second half-transformation.
	Starting BB second half-transformation.
	Two-electron integral transformation complete.
	(VV|OV)...
	Starting AA second half-transformation.
	Starting AB second half-transformation.
	Starting BB second half-transformation.
	Two-electron integral transformation complete.
	(VV|VV)...
	Starting AA second half-transformation.
	Starting AB second half-transformation.
	Starting BB second half-transformation.
	Two-electron integral transformation complete.
	Frozen core energy     =    -60.19859442155335

	Size of irrep 0 of <AB|CD> integrals:    164.122 (MW) /   1312.974 (MB)
	Size of irrep 1 of <AB|CD> integrals:    126.023 (MW) /   1008.185 (MB)
	Size of irrep 2 of <AB|CD> integrals:    146.023 (MW) /   1168.184 (MB)
	Size of irrep 3 of <AB|CD> integrals:    146.023 (MW) /   1168.184 (MB)
	Total:                                   582.191 (MW) /   4657.527 (MB)

	Size of irrep 0 of <ab|cd> integrals:    166.075 (MW) /   1328.598 (MB)
	Size of irrep 1 of <ab|cd> integrals:    127.735 (MW) /   1021.882 (MB)
	Size of irrep 2 of <ab|cd> integrals:    148.669 (MW) /   1189.354 (MB)
	Size of irrep 3 of <ab|cd> integrals:    147.234 (MW) /   1177.872 (MB)
	Total:                                   589.713 (MW) /   4717.705 (MB)

	Size of irrep 0 of <Ab|Cd> integrals:    676.468 (MW) /   5411.745 (MB)
	Size of irrep 1 of <Ab|Cd> integrals:    507.511 (MW) /   4060.086 (MB)
	Size of irrep 2 of <Ab|Cd> integrals:    589.373 (MW) /   4714.982 (MB)
	Size of irrep 3 of <Ab|Cd> integrals:    586.512 (MW) /   4692.092 (MB)
	Total:                                  2359.863 (MW) /  18878.905 (MB)

	Size of irrep 0 of <IA|BC> integrals:      9.595 (MW) /     76.762 (MB)
	Size of irrep 1 of <IA|BC> integrals:      5.658 (MW) /     45.263 (MB)
	Size of irrep 2 of <IA|BC> integrals:      7.516 (MW) /     60.130 (MB)
	Size of irrep 3 of <IA|BC> integrals:      7.516 (MW) /     60.130 (MB)
	Total:                                    30.286 (MW) /    242.285 (MB)

	Size of irrep 0 of <ia|bc> integrals:      7.669 (MW) /     61.354 (MB)
	Size of irrep 1 of <ia|bc> integrals:      4.001 (MW) /     32.007 (MB)
	Size of irrep 2 of <ia|bc> integrals:      4.975 (MW) /     39.798 (MB)
	Size of irrep 3 of <ia|bc> integrals:      6.334 (MW) /     50.672 (MB)
	Total:                                    22.979 (MW) /    183.831 (MB)

      * MP2 total energy                      =  -75.657015043535665
      * CCSD total energy                     =  -75.665896439210229
*** Psi4 exiting successfully. Buy a developer a beer!
