                               Psi4 1.2a1.dev938

  ==> Input File <==

--------------------------------------------------------------------------
# Any line starting with the # character is a comment line
memory 250000 mb
molecule molecule{
0 2
O          0.0000000000        0.0000000000       -0.0574567159
H          0.0000000000        0.0000000000        0.9120314505
}

set {
  reference uhf
  basis aug-cc-pv(d+d)z
  scf_type OUT_OF_CORE
  freeze_core true
}

energy('ccsd')
--------------------------------------------------------------------------

    Molecular point group: c2v

    Geometry (in Angstrom), charge = 0, multiplicity = 2:

       Center              X                  Y                   Z               Mass
    ------------   -----------------  -----------------  -----------------  -----------------
           O          0.000000000000     0.000000000000    -0.057465706258    15.994914619560
           H          0.000000000000     0.000000000000     0.912022460142     1.007825032070

  Charge       = 0
  Multiplicity = 2
  Basis Set: AUG-CC-PV(D+D)Z
    Blend: AUG-CC-PV(D+D)Z

    Orbital Energies (a.u.)
    -----------------------

    Alpha Occupied:

       1A1   -20.651374     2A1    -1.393143     3A1    -0.684371
       1B2    -0.657138     1B1    -0.561616

    Alpha Virtual:

       4A1     0.035719     5A1     0.178262     2B2     0.185140
       2B1     0.198035     6A1     0.225757     7A1     0.316747
       3B2     0.386475     3B1     0.396827     8A1     0.626165
       9A1     0.841147     1A2     0.956407    10A1     0.958156
       4B2     1.086561     4B1     1.117012    11A1     1.316973
       5B2     1.328596     5B1     1.387459    12A1     1.662650
       6B2     2.013412     6B1     2.031251    13A1     2.494953
      14A1     2.760237    15A1     3.484053     2A2     3.484131
       7B2     3.592349     7B1     3.652595    16A1     4.098223

    Beta Occupied:

       1A1   -20.610501     2A1    -1.235341     3A1    -0.640027
       1B1    -0.511969

    Beta Virtual:

       4A1     0.037176     1B2     0.064451     5A1     0.181634
       2B1     0.201482     6A1     0.232620     2B2     0.257685
       7A1     0.321856     3B1     0.396418     3B2     0.409700
       8A1     0.640952     9A1     0.851536     1A2     0.995098
      10A1     0.996188     4B1     1.119274     4B2     1.132252
      11A1     1.332057     5B1     1.410666     5B2     1.498999
      12A1     1.685614     6B2     2.021402     6B1     2.027956
      13A1     2.527313    14A1     2.776037     2A2     3.584409
      15A1     3.585122     7B1     3.671253     7B2     3.689032
      16A1     4.132201

    Final Occupation by Irrep:
             A1    A2    B1    B2
    DOCC [     3,    0,    1,    0 ]
    SOCC [     0,    0,    0,    1 ]

  Energy converged.

  @UHF Final Energy:   -75.40366305104931

   => Energetics <=

    Nuclear Repulsion Energy =              4.3666522351066419
    One-Electron Energy =                -112.5951497283698188
    Two-Electron Energy =                  32.8248344422138771
    Total Energy =                        -75.4036630510493069

  UHF NO Occupations:
  HONO-2 :    2 A1 1.9992611
  HONO-1 :    3 A1 1.9980184
  HONO-0 :    1 B2 1.0000000
  LUNO+0 :    4 A1 0.0019816
  LUNO+1 :    5 A1 0.0007389
  LUNO+2 :    2 B1 0.0005573
  LUNO+3 :    6 A1 0.0000004

Properties will be evaluated at   0.000000,   0.000000,   0.000000 Bohr

Properties computed using the SCF density matrix

  Nuclear Dipole Moment: (a.u.)
     X:     0.0000      Y:     0.0000      Z:     0.8547

  Electronic Dipole Moment: (a.u.)
     X:     0.0000      Y:     0.0000      Z:    -0.1582

  Dipole Moment: (a.u.)
     X:     0.0000      Y:     0.0000      Z:     0.6965     Total:     0.6965

  Dipole Moment: (Debye)
     X:     0.0000      Y:     0.0000      Z:     1.7704     Total:     1.7704

*** tstop() called on cqc05 at Thu Aug 20 19:54:52 2020
Module time:
	user time   =       0.34 seconds =       0.01 minutes
	system time =       0.02 seconds =       0.00 minutes
	total time  =          0 seconds =       0.00 minutes
Total time:
	user time   =       0.34 seconds =       0.01 minutes
	system time =       0.02 seconds =       0.00 minutes
	total time  =          0 seconds =       0.00 minutes

*** tstart() called on cqc05
*** at Thu Aug 20 19:54:52 2020

	Wfn Parameters:
	--------------------
	Wavefunction         = CCSD
	Number of irreps     = 4
	Number of MOs        = 32
	Number of active MOs = 31
	AO-Basis             = NONE
	Semicanonical        = false
	Reference            = UHF
	Print Level          = 1

	IRREP	# MOs	# FZDC	# DOCC	# SOCC	# VIRT	# FZVR
	-----	-----	------	------	------	------	------
	 A1	   16	    1	    2	    0	    13	    0
	 A2	   2	    0	    0	    0	    2	    0
	 B1	   7	    0	    1	    0	    6	    0
	 B2	   7	    0	    0	    1	    6	    0
	Transforming integrals...
	IWL integrals will be deleted.
	(OO|OO)...
	Presorting SO-basis two-electron integrals.
	Sorting File: SO Ints (nn|nn) nbuckets = 1
	Transforming the one-electron integrals and constructing Fock matrices
	Starting AA/AB first half-transformation.
	Sorting AA/AB half-transformed integrals.
	Starting BB first half-transformation.
	Sorting BB half-transformed integrals.
	First half integral transformation complete.
	Starting AA second half-transformation.
	Starting AB second half-transformation.
	Starting BB second half-transformation.
	Two-electron integral transformation complete.
	(OO|OV)...
	Starting AA second half-transformation.
	Starting AB second half-transformation.
	Starting BB second half-transformation.
	Two-electron integral transformation complete.
	(OO|VV)...
	Starting AA second half-transformation.
	Starting AB second half-transformation.
	Starting BB second half-transformation.
	Two-electron integral transformation complete.
	(OV|OO)...
	Starting AA/AB first half-transformation.
	Sorting AA/AB half-transformed integrals.
	Starting BB first half-transformation.
	Sorting BB half-transformed integrals.
	First half integral transformation complete.
	Starting AA second half-transformation.
	Starting AB second half-transformation.
	Starting BB second half-transformation.
	Two-electron integral transformation complete.
	(OV|OV)...
	Starting AA second half-transformation.
	Starting AB second half-transformation.
	Starting BB second half-transformation.
	Two-electron integral transformation complete.
	(OV|VV)...
	Starting AA second half-transformation.
	Starting AB second half-transformation.
	Starting BB second half-transformation.
	Two-electron integral transformation complete.
	(VV|OO)...
	Starting AA/AB first half-transformation.
	Sorting AA/AB half-transformed integrals.
	Starting BB first half-transformation.
	Sorting BB half-transformed integrals.
	First half integral transformation complete.
	Starting AA second half-transformation.
	Starting AB second half-transformation.
	Starting BB second half-transformation.
	Two-electron integral transformation complete.
	(VV|OV)...
	Starting AA second half-transformation.
	Starting AB second half-transformation.
	Starting BB second half-transformation.
	Two-electron integral transformation complete.
	(VV|VV)...
	Starting AA second half-transformation.
	Starting AB second half-transformation.
	Starting BB second half-transformation.
	Two-electron integral transformation complete.
	Frozen core energy     =    -60.19681904510243

	Size of irrep 0 of <AB|CD> integrals:      0.012 (MW) /      0.095 (MB)
	Size of irrep 1 of <AB|CD> integrals:      0.004 (MW) /      0.031 (MB)
	Size of irrep 2 of <AB|CD> integrals:      0.008 (MW) /      0.065 (MB)
	Size of irrep 3 of <AB|CD> integrals:      0.008 (MW) /      0.065 (MB)
	Total:                                     0.032 (MW) /      0.255 (MB)

	Size of irrep 0 of <ab|cd> integrals:      0.013 (MW) /      0.106 (MB)
	Size of irrep 1 of <ab|cd> integrals:      0.005 (MW) /      0.037 (MB)
	Size of irrep 2 of <ab|cd> integrals:      0.008 (MW) /      0.068 (MB)
	Size of irrep 3 of <ab|cd> integrals:      0.011 (MW) /      0.085 (MB)
	Total:                                     0.037 (MW) /      0.295 (MB)

	Size of irrep 0 of <Ab|Cd> integrals:      0.063 (MW) /      0.504 (MB)
	Size of irrep 1 of <Ab|Cd> integrals:      0.017 (MW) /      0.135 (MB)
	Size of irrep 2 of <Ab|Cd> integrals:      0.033 (MW) /      0.265 (MB)
	Size of irrep 3 of <Ab|Cd> integrals:      0.037 (MW) /      0.298 (MB)
	Total:                                     0.150 (MW) /      1.202 (MB)

	Size of irrep 0 of <IA|BC> integrals:      0.009 (MW) /      0.074 (MB)
	Size of irrep 1 of <IA|BC> integrals:      0.002 (MW) /      0.016 (MB)
	Size of irrep 2 of <IA|BC> integrals:      0.005 (MW) /      0.039 (MB)
	Size of irrep 3 of <IA|BC> integrals:      0.005 (MW) /      0.039 (MB)
	Total:                                     0.021 (MW) /      0.168 (MB)

	Size of irrep 0 of <ia|bc> integrals:      0.008 (MW) /      0.066 (MB)
	Size of irrep 1 of <ia|bc> integrals:      0.001 (MW) /      0.012 (MB)
	Size of irrep 2 of <ia|bc> integrals:      0.005 (MW) /      0.037 (MB)
	Size of irrep 3 of <ia|bc> integrals:      0.003 (MW) /      0.026 (MB)
	Total:                                     0.018 (MW) /      0.141 (MB)

	Size of irrep 0 of <Ia|Bc> integrals:      0.010 (MW) /      0.078 (MB)
	Size of irrep 1 of <Ia|Bc> integrals:      0.002 (MW) /      0.018 (MB)
	Size of irrep 2 of <Ia|Bc> integrals:      0.005 (MW) /      0.039 (MB)
	Size of irrep 3 of <Ia|Bc> integrals:      0.006 (MW) /      0.045 (MB)
	Total:                                     0.023 (MW) /      0.180 (MB)

	Size of irrep 0 of <iA|bC> integrals:      0.008 (MW) /      0.064 (MB)
	Size of irrep 1 of <iA|bC> integrals:      0.001 (MW) /      0.010 (MB)
	Size of irrep 2 of <iA|bC> integrals:      0.005 (MW) /      0.036 (MB)
	Size of irrep 3 of <iA|bC> integrals:      0.003 (MW) /      0.022 (MB)
	Total:                                     0.017 (MW) /      0.133 (MB)

	Size of irrep 0 of tIjAb amplitudes:       0.001 (MW) /      0.010 (MB)
	Size of irrep 1 of tIjAb amplitudes:       0.000 (MW) /      0.001 (MB)
	Size of irrep 2 of tIjAb amplitudes:       0.001 (MW) /      0.006 (MB)
	Size of irrep 3 of tIjAb amplitudes:       0.000 (MW) /      0.003 (MB)
	Total:                                     0.002 (MW) /      0.020 (MB)

	Nuclear Rep. energy          =      4.36665223510664
	SCF energy                   =    -75.40366305104931
	One-electron energy          =    -33.46338652523345
	Two-electron (AA) energy     =      3.68893647044967
	Two-electron (BB) energy     =      1.71670036836501
	Two-electron (AB) energy     =      8.48425344536512
	Two-electron energy          =     13.88989028417981
	Reference energy             =    -75.40366305104942

*** tstop() called on cqc05 at Thu Aug 20 19:54:52 2020
Module time:
	user time   =       0.07 seconds =       0.00 minutes
	system time =       0.03 seconds =       0.00 minutes
	total time  =          0 seconds =       0.00 minutes
Total time:
	user time   =       0.41 seconds =       0.01 minutes
	system time =       0.05 seconds =       0.00 minutes
	total time  =          0 seconds =       0.00 minutes

*** tstart() called on cqc05
*** at Thu Aug 20 19:54:52 2020

            **************************
            *                        *
            *        CCENERGY        *
            *                        *
            **************************

    Nuclear Rep. energy (wfn)     =    4.366652235106642
    SCF energy          (wfn)     =  -75.403663051049307
    Reference energy    (file100) =  -75.403663051049421

    Input parameters:
    -----------------
    Wave function   =     CCSD
    Reference wfn   =     UHF
    Brueckner       =     No
    Memory (Mbytes) =     250000.0
    Maxiter         =     50
    R_Convergence   =     1.0e-07
    E_Convergence   =     1.0e-06
    Restart         =     Yes
    DIIS            =     Yes
    AO Basis        =     NONE
    ABCD            =     NEW
    Cache Level     =     2
    Cache Type      =     LRU
    Print Level     =     1
    Num. of threads =     4
    # Amps to Print =     10
    Print MP2 Amps? =     No
    Analyze T2 Amps =     No
    Print Pair Ener =     No
    Local CC        =     No
    SCS-MP2         =     False
    SCSN-MP2        =     False
    SCS-CCSD        =     False

MP2 correlation energy -0.1618790369663886
                Solving CC Amplitude Equations
                ------------------------------
  Iter             Energy              RMS        T1Diag      D1Diag    New D1Diag    D2Diag
  ----     ---------------------    ---------   ----------  ----------  ----------   --------
     0        -0.161879036966389    0.000e+00    0.000000    0.000000    0.000000    0.000000
     1        -0.172023975894581    4.299e-02    0.012731    0.000000    0.000000    0.000000
     2        -0.175849962471602    1.327e-02    0.014486    0.000000    0.000000    0.000000
     3        -0.176954030002637    6.781e-03    0.016862    0.000000    0.000000    0.000000
     4        -0.176937245417346    2.287e-03    0.017298    0.000000    0.000000    0.000000
     5        -0.176943170526548    9.351e-04    0.017300    0.000000    0.000000    0.000000
     6        -0.176966704823607    3.517e-04    0.017280    0.000000    0.000000    0.000000
     7        -0.176969033397044    9.856e-05    0.017265    0.000000    0.000000    0.000000
     8        -0.176968878433162    3.169e-05    0.017263    0.000000    0.000000    0.000000
     9        -0.176968743156873    1.318e-05    0.017264    0.000000    0.000000    0.000000
    10        -0.176968719870092    5.450e-06    0.017264    0.000000    0.000000    0.000000
    11        -0.176968746387260    1.871e-06    0.017264    0.000000    0.000000    0.000000
    12        -0.176968779673146    6.884e-07    0.017264    0.000000    0.000000    0.000000
    13        -0.176968786270236    2.812e-07    0.017264    0.000000    0.000000    0.000000
    14        -0.176968788633284    1.163e-07    0.017264    0.000000    0.000000    0.000000
    15        -0.176968788429045    4.717e-08    0.017264    0.000000    0.000000    0.000000
    15        -0.176968788429045    4.717e-08    0.017264    0.000000    0.000000    0.000000

    Iterations converged.

    CCSD corr. energy   =   -0.176968788429045
    PPL corr. energy    =    0.033603917208556
    OS PPL corr. energy =    0.027951449784262
    SS PPL corr. energy =    0.005652467424294
    Largest TIA Amplitudes:
              2  15        -0.0203371532
              3  21        -0.0181228507
              2  16        -0.0116135651
              3  22        -0.0106132413
              1   3         0.0095875601
              1   1         0.0085231938
              0   2        -0.0063620593
              1   9        -0.0050036366
              3  24        -0.0039285076
              2  18        -0.0033701941

    Largest Tia Amplitudes:
              2  15        -0.0185039618
              2  16        -0.0114032636
              1   3         0.0076417760
              0   6        -0.0055377513
              0   3        -0.0055280314
              1   1         0.0054496163
              1   9        -0.0051949085
              0   9        -0.0050590257
              0   5        -0.0040519007
              1   8         0.0036024038

    Largest TIJAB Amplitudes:
      3   2  24  18        -0.0240708891
      3   2  13   6         0.0184672783
      3   1  24   7         0.0159057748
      2   1  18   7         0.0154525481
      3   1  23   5        -0.0137617121
      3   2  24  15        -0.0135761967
      3   2  14  11         0.0131283991
      2   1  17   5        -0.0129148693
      3   1  24   3         0.0127520307
      3   2  21  18        -0.0125631298

    Largest Tijab Amplitudes:
      2   1  18   7         0.0149175377
      2   1  17   5        -0.0148049814
      2   1  18   3         0.0123801249
      2   0  21  13         0.0121621185
      2   1  16   3         0.0117228901
      2   1  16   5         0.0112237428
      2   1  15   1         0.0107141131
      2   1  18   1         0.0107076493
      2   1  15   7         0.0100016116
      2   1  15   3         0.0098094445

    Largest TIjAb Amplitudes:
      2   2  18  18        -0.0469959838
      1   1   5   5        -0.0370939156
      3   2  24  18        -0.0321598747
      1   1   7   7        -0.0284872734
      1   1   3   3        -0.0269060947
      2   2  18  15        -0.0256931017
      2   2  15  18        -0.0249944239
      1   1   3   5        -0.0241051781
      2   2  15  15        -0.0236411088
      1   1   5   3        -0.0235622636

    SCF energy       (wfn)                    =  -75.403663051049307
    Reference energy (file100)                =  -75.403663051049421

    Opposite-spin MP2 correlation energy      =   -0.122282678241052
    Same-spin MP2 correlation energy          =   -0.039596358725335
    MP2 correlation energy                    =   -0.161879036966389
      * MP2 total energy                      =  -75.565542088015803

    Opposite-spin CCSD correlation energy     =   -0.139426457293721
    Same-spin CCSD correlation energy         =   -0.037542331052045
    CCSD correlation energy                   =   -0.176968788429045
      * CCSD total energy                     =  -75.580631839478471

*** tstop() called on cqc05 at Thu Aug 20 19:54:54 2020
Module time:
	user time   =       0.34 seconds =       0.01 minutes
	system time =       0.25 seconds =       0.00 minutes
	total time  =          2 seconds =       0.03 minutes
Total time:
	user time   =       0.75 seconds =       0.01 minutes
	system time =       0.30 seconds =       0.01 minutes
	total time  =          2 seconds =       0.03 minutes

*** Psi4 exiting successfully. Buy a developer a beer!
