                               Psi4 1.4a3.dev88

  ==> Input File <==

--------------------------------------------------------------------------
# Any line starting with the # character is a comment line
memory 250000 mb
molecule molecule{
-1 4
Si          0.0000000000        0.0000000000        0.0000000000
}

set {
  reference uhf
  basis aug-cc-pV(t+d)Z
  scf_type OUT_OF_CORE
  freeze_core true
}

energy('ccsd(t)')
--------------------------------------------------------------------------

    Molecular point group: d2h
    Geometry (in Angstrom), charge = -1, multiplicity = 4:

       Center              X                  Y                   Z               Mass
    ------------   -----------------  -----------------  -----------------  -----------------
         SI           0.000000000000     0.000000000000     0.000000000000    27.976926534650

  Charge       = -1
  Multiplicity = 4
  Basis Set: AUG-CC-PV(T+D)Z
    Blend: AUG-CC-PV(T+D)Z

    Orbital Energies [Eh]
    ---------------------

    Alpha Occupied:

       1Ag   -68.559412     2Ag    -5.903797     1B1u   -4.010454
       1B2u   -4.010454     1B3u   -4.010454     3Ag    -0.400741
       2B3u   -0.061960     2B2u   -0.061960     2B1u   -0.061960

    Alpha Virtual:

       3B2u    0.203826     3B3u    0.203826     3B1u    0.203826
       4Ag     0.212478     5Ag     0.305731     1B3g    0.305731
       1B2g    0.305731     1B1g    0.305731     6Ag     0.305731
       7Ag     0.642248     2B1g    0.642248     2B2g    0.642248
       2B3g    0.642248     8Ag     0.642248     4B3u    0.653771
       4B2u    0.653771     4B1u    0.653771     9Ag     0.668398
       5B1u    0.683410     5B2u    0.683410     5B3u    0.683410
       1Au     0.683410     6B1u    0.683410     6B2u    0.683410
       6B3u    0.683410    10Ag     1.474428     3B2g    1.474428
       3B3g    1.474428     3B1g    1.474428    11Ag     1.474428
       7B1u    1.664805     7B3u    1.664805     7B2u    1.664805
       2Au     1.664805     8B1u    1.664805     8B3u    1.664805
       8B2u    1.664805     9B1u    2.747331     9B3u    2.747331
       9B2u    2.747331    12Ag     2.783663    13Ag     5.029862
       4B2g    5.029862     4B3g    5.029862     4B1g    5.029862
      14Ag     5.029862

    Beta Occupied:

       1Ag   -68.549289     2Ag    -5.892655     1B3u   -3.987801
       1B2u   -3.987801     1B1u   -3.987801     3Ag    -0.204608

    Beta Virtual:

       2B2u    0.184234     2B3u    0.184234     2B1u    0.184234
       4Ag     0.236839     3B1u    0.311844     3B2u    0.311844
       3B3u    0.311844     5Ag     0.340075     1B3g    0.340075
       1B2g    0.340075     1B1g    0.340075     6Ag     0.340075
       7Ag     0.712472     4B1u    0.715584     4B3u    0.715584
       4B2u    0.715584     1Au     0.715584     5B1u    0.715584
       5B3u    0.715584     5B2u    0.715584     6B1u    0.720857
       6B2u    0.720857     6B3u    0.720857     8Ag     0.727502
       2B3g    0.727502     2B2g    0.727502     2B1g    0.727502
       9Ag     0.727502    10Ag     1.513352     3B3g    1.513352
       3B2g    1.513352     3B1g    1.513352    11Ag     1.513352
       7B1u    1.713062     7B3u    1.713062     7B2u    1.713062
       8B1u    1.713062     2Au     1.713062     8B3u    1.713062
       8B2u    1.713062     9B1u    2.783140     9B3u    2.783140
       9B2u    2.783140    12Ag     2.809101    13Ag     5.039361
       4B2g    5.039361     4B3g    5.039361     4B1g    5.039361
      14Ag     5.039361

    Final Occupation by Irrep:
             Ag   B1g   B2g   B3g    Au   B1u   B2u   B3u
    DOCC [     3,    0,    0,    0,    0,    1,    1,    1 ]
    SOCC [     0,    0,    0,    0,    0,    1,    1,    1 ]

  @UHF Final Energy:  -288.88804875478399

   => Energetics <=

    Nuclear Repulsion Energy =              0.0000000000000000
    One-Electron Energy =                -404.0849488310368542
    Two-Electron Energy =                 115.1969000762528594
    Total Energy =                       -288.8880487547839948

  UHF NO Occupations:
  HONO-2 :    2B3u 1.0000000
  HONO-1 :    2B1u 1.0000000
  HONO-0 :    2B2u 1.0000000
  LUNO+0 :    4 Ag 0.0003892
  LUNO+1 :    3B1u 0.0000029
  LUNO+2 :    3B2u 0.0000029
  LUNO+3 :    3B3u 0.0000029

Computation Completed

Properties will be evaluated at   0.000000,   0.000000,   0.000000 [a0]

Properties computed using the SCF density matrix

  Nuclear Dipole Moment: [e a0]
     X:     0.0000      Y:     0.0000      Z:     0.0000

  Electronic Dipole Moment: [e a0]
     X:     0.0000      Y:     0.0000      Z:     0.0000

  Dipole Moment: [e a0]
     X:     0.0000      Y:     0.0000      Z:     0.0000     Total:     0.0000

  Dipole Moment: [D]
     X:     0.0000      Y:     0.0000      Z:     0.0000     Total:     0.0000

*** tstop() called on n412-040.vsc4.prov at Tue Jan 26 18:03:38 2021
Module time:
	user time   =      12.66 seconds =       0.21 minutes
	system time =       1.07 seconds =       0.02 minutes
	total time  =          3 seconds =       0.05 minutes
Total time:
	user time   =      12.66 seconds =       0.21 minutes
	system time =       1.07 seconds =       0.02 minutes
	total time  =          3 seconds =       0.05 minutes

*** tstart() called on n412-040.vsc4.prov
*** at Tue Jan 26 18:03:38 2021

	Wfn Parameters:
	--------------------
	Wavefunction         = CCSD_T
	Number of irreps     = 8
	Number of MOs        = 55
	Number of active MOs = 50
	AO-Basis             = NONE
	Semicanonical        = false
	Reference            = UHF
	Print Level          = 1

	IRREP	# MOs	# FZDC	# DOCC	# SOCC	# VIRT	# FZVR
	-----	-----	------	------	------	------	------
	 Ag	   14	    2	    1	    0	    11	    0
	 B1g	   4	    0	    0	    0	    4	    0
	 B2g	   4	    0	    0	    0	    4	    0
	 B3g	   4	    0	    0	    0	    4	    0
	 Au	   2	    0	    0	    0	    2	    0
	 B1u	   9	    1	    0	    1	    7	    0
	 B2u	   9	    1	    0	    1	    7	    0
	 B3u	   9	    1	    0	    1	    7	    0
	Transforming integrals...
	IWL integrals will be deleted.
	(OO|OO)...
	Presorting SO-basis two-electron integrals.
	Sorting File: SO Ints (nn|nn) nbuckets = 1
	Constructing frozen core operators
	Starting AA/AB first half-transformation.
	Sorting AA/AB half-transformed integrals.
	Starting BB first half-transformation.
	Sorting BB half-transformed integrals.
	First half integral transformation complete.
	Starting AA second half-transformation.
	Starting AB second half-transformation.
	Starting BB second half-transformation.
	Two-electron integral transformation complete.
	(OO|OV)...
	Starting AA second half-transformation.
	Starting AB second half-transformation.
	Starting BB second half-transformation.
	Two-electron integral transformation complete.
	(OO|VV)...
	Starting AA second half-transformation.
	Starting AB second half-transformation.
	Starting BB second half-transformation.
	Two-electron integral transformation complete.
	(OV|OO)...
	Starting AA/AB first half-transformation.
	Sorting AA/AB half-transformed integrals.
	Starting BB first half-transformation.
	Sorting BB half-transformed integrals.
	First half integral transformation complete.
	Starting AA second half-transformation.
	Starting AB second half-transformation.
	Starting BB second half-transformation.
	Two-electron integral transformation complete.
	(OV|OV)...
	Starting AA second half-transformation.
	Starting AB second half-transformation.
	Starting BB second half-transformation.
	Two-electron integral transformation complete.
	(OV|VV)...
	Starting AA second half-transformation.
	Starting AB second half-transformation.
	Starting BB second half-transformation.
	Two-electron integral transformation complete.
	(VV|OO)...
	Starting AA/AB first half-transformation.
	Sorting AA/AB half-transformed integrals.
	Starting BB first half-transformation.
	Sorting BB half-transformed integrals.
	First half integral transformation complete.
	Starting AA second half-transformation.
	Starting AB second half-transformation.
	Starting BB second half-transformation.
	Two-electron integral transformation complete.
	(VV|OV)...
	Starting AA second half-transformation.
	Starting AB second half-transformation.
	Starting BB second half-transformation.
	Two-electron integral transformation complete.
	(VV|VV)...
	Starting AA second half-transformation.
	Starting AB second half-transformation.
	Starting BB second half-transformation.
	Two-electron integral transformation complete.
	Frozen core energy     =   -285.17549538325108

	Size of irrep 0 of <AB|CD> integrals:      0.019 (MW) /      0.150 (MB)
	Size of irrep 1 of <AB|CD> integrals:      0.015 (MW) /      0.121 (MB)
	Size of irrep 2 of <AB|CD> integrals:      0.015 (MW) /      0.121 (MB)
	Size of irrep 3 of <AB|CD> integrals:      0.015 (MW) /      0.121 (MB)
	Size of irrep 4 of <AB|CD> integrals:      0.011 (MW) /      0.090 (MB)
	Size of irrep 5 of <AB|CD> integrals:      0.020 (MW) /      0.159 (MB)
	Size of irrep 6 of <AB|CD> integrals:      0.020 (MW) /      0.159 (MB)
	Size of irrep 7 of <AB|CD> integrals:      0.020 (MW) /      0.159 (MB)
	Total:                                     0.135 (MW) /      1.080 (MB)

	Size of irrep 0 of <ab|cd> integrals:      0.025 (MW) /      0.200 (MB)
	Size of irrep 1 of <ab|cd> integrals:      0.020 (MW) /      0.157 (MB)
	Size of irrep 2 of <ab|cd> integrals:      0.020 (MW) /      0.157 (MB)
	Size of irrep 3 of <ab|cd> integrals:      0.020 (MW) /      0.157 (MB)
	Size of irrep 4 of <ab|cd> integrals:      0.014 (MW) /      0.111 (MB)
	Size of irrep 5 of <ab|cd> integrals:      0.026 (MW) /      0.205 (MB)
	Size of irrep 6 of <ab|cd> integrals:      0.026 (MW) /      0.205 (MB)
	Size of irrep 7 of <ab|cd> integrals:      0.026 (MW) /      0.205 (MB)
	Total:                                     0.174 (MW) /      1.396 (MB)

	Size of irrep 0 of <Ab|Cd> integrals:      0.116 (MW) /      0.930 (MB)
	Size of irrep 1 of <Ab|Cd> integrals:      0.069 (MW) /      0.549 (MB)
	Size of irrep 2 of <Ab|Cd> integrals:      0.069 (MW) /      0.549 (MB)
	Size of irrep 3 of <Ab|Cd> integrals:      0.069 (MW) /      0.549 (MB)
	Size of irrep 4 of <Ab|Cd> integrals:      0.050 (MW) /      0.401 (MB)
	Size of irrep 5 of <Ab|Cd> integrals:      0.091 (MW) /      0.725 (MB)
	Size of irrep 6 of <Ab|Cd> integrals:      0.091 (MW) /      0.725 (MB)
	Size of irrep 7 of <Ab|Cd> integrals:      0.091 (MW) /      0.725 (MB)
	Total:                                     0.644 (MW) /      5.154 (MB)

	Size of irrep 0 of <IA|BC> integrals:      0.010 (MW) /      0.082 (MB)
	Size of irrep 1 of <IA|BC> integrals:      0.005 (MW) /      0.039 (MB)
	Size of irrep 2 of <IA|BC> integrals:      0.005 (MW) /      0.039 (MB)
	Size of irrep 3 of <IA|BC> integrals:      0.005 (MW) /      0.039 (MB)
	Size of irrep 4 of <IA|BC> integrals:      0.003 (MW) /      0.024 (MB)
	Size of irrep 5 of <IA|BC> integrals:      0.007 (MW) /      0.059 (MB)
	Size of irrep 6 of <IA|BC> integrals:      0.007 (MW) /      0.059 (MB)
	Size of irrep 7 of <IA|BC> integrals:      0.007 (MW) /      0.059 (MB)
	Total:                                     0.050 (MW) /      0.400 (MB)

	Size of irrep 0 of <ia|bc> integrals:      0.004 (MW) /      0.032 (MB)
	Size of irrep 1 of <ia|bc> integrals:      0.001 (MW) /      0.009 (MB)
	Size of irrep 2 of <ia|bc> integrals:      0.001 (MW) /      0.009 (MB)
	Size of irrep 3 of <ia|bc> integrals:      0.001 (MW) /      0.009 (MB)
	Size of irrep 4 of <ia|bc> integrals:      0.000 (MW) /      0.004 (MB)
	Size of irrep 5 of <ia|bc> integrals:      0.003 (MW) /      0.020 (MB)
	Size of irrep 6 of <ia|bc> integrals:      0.003 (MW) /      0.020 (MB)
	Size of irrep 7 of <ia|bc> integrals:      0.003 (MW) /      0.020 (MB)
	Total:                                     0.016 (MW) /      0.124 (MB)

	Size of irrep 0 of <Ia|Bc> integrals:      0.012 (MW) /      0.095 (MB)
	Size of irrep 1 of <Ia|Bc> integrals:      0.006 (MW) /      0.046 (MB)
	Size of irrep 2 of <Ia|Bc> integrals:      0.006 (MW) /      0.046 (MB)
	Size of irrep 3 of <Ia|Bc> integrals:      0.006 (MW) /      0.046 (MB)
	Size of irrep 4 of <Ia|Bc> integrals:      0.003 (MW) /      0.025 (MB)
	Size of irrep 5 of <Ia|Bc> integrals:      0.008 (MW) /      0.065 (MB)
	Size of irrep 6 of <Ia|Bc> integrals:      0.008 (MW) /      0.065 (MB)
	Size of irrep 7 of <Ia|Bc> integrals:      0.008 (MW) /      0.065 (MB)
	Total:                                     0.057 (MW) /      0.454 (MB)

	Size of irrep 0 of <iA|bC> integrals:      0.004 (MW) /      0.030 (MB)
	Size of irrep 1 of <iA|bC> integrals:      0.001 (MW) /      0.008 (MB)
	Size of irrep 2 of <iA|bC> integrals:      0.001 (MW) /      0.008 (MB)
	Size of irrep 3 of <iA|bC> integrals:      0.001 (MW) /      0.008 (MB)
	Size of irrep 4 of <iA|bC> integrals:      0.000 (MW) /      0.004 (MB)
	Size of irrep 5 of <iA|bC> integrals:      0.002 (MW) /      0.017 (MB)
	Size of irrep 6 of <iA|bC> integrals:      0.002 (MW) /      0.017 (MB)
	Size of irrep 7 of <iA|bC> integrals:      0.002 (MW) /      0.017 (MB)
	Total:                                     0.014 (MW) /      0.109 (MB)

	Size of irrep 0 of tIjAb amplitudes:       0.000 (MW) /      0.003 (MB)
	Size of irrep 1 of tIjAb amplitudes:       0.000 (MW) /      0.000 (MB)
	Size of irrep 2 of tIjAb amplitudes:       0.000 (MW) /      0.000 (MB)
	Size of irrep 3 of tIjAb amplitudes:       0.000 (MW) /      0.000 (MB)
	Size of irrep 4 of tIjAb amplitudes:       0.000 (MW) /      0.000 (MB)
	Size of irrep 5 of tIjAb amplitudes:       0.000 (MW) /      0.002 (MB)
	Size of irrep 6 of tIjAb amplitudes:       0.000 (MW) /      0.002 (MB)
	Size of irrep 7 of tIjAb amplitudes:       0.000 (MW) /      0.002 (MB)
	Total:                                     0.001 (MW) /      0.010 (MB)

	Nuclear Rep. energy          =      0.00000000000000
	SCF energy                   =   -288.88804875478399
	One-electron energy          =     -6.63387805969514
	Two-electron (AA) energy     =      1.54472812663015
	Two-electron (BB) energy     =      0.00000000000000
	Two-electron (AB) energy     =      1.37659656153213
	Two-electron energy          =      2.92132468816228
	Reference energy             =   -288.88804875478394

*** tstop() called on n412-040.vsc4.prov at Tue Jan 26 18:03:40 2021
Module time:
	user time   =       0.19 seconds =       0.00 minutes
	system time =       0.20 seconds =       0.00 minutes
	total time  =          2 seconds =       0.03 minutes
Total time:
	user time   =      12.85 seconds =       0.21 minutes
	system time =       1.27 seconds =       0.02 minutes
	total time  =          5 seconds =       0.08 minutes
            **************************
            *                        *
            *        CCENERGY        *
            *                        *
            **************************

    Nuclear Rep. energy (wfn)     =    0.000000000000000
    SCF energy          (wfn)     = -288.888048754783995
    Reference energy    (file100) = -288.888048754783938

    Input parameters:
    -----------------
    Wave function   =     CCSD_T
    Reference wfn   =     UHF
    Brueckner       =     No
    Memory (Mbytes) =     250000.0
    Maxiter         =     50
    R_Convergence   =     1.0e-07
    E_Convergence   =     1.0e-06
    Restart         =     Yes
    DIIS            =     Yes
    AO Basis        =     NONE
    ABCD            =     NEW
    Cache Level     =     2
    Cache Type      =     LRU
    Print Level     =     1
    Num. of threads =     48
    # Amps to Print =     10
    Print MP2 Amps? =     No
    Analyze T2 Amps =     No
    Print Pair Ener =     No
    Local CC        =     No
    SCS-MP2         =     False
    SCSN-MP2        =     False
    SCS-CCSD        =     False

MP2 correlation energy -0.0764036386228371
                Solving CC Amplitude Equations
                ------------------------------
  Iter             Energy              RMS        T1Diag      D1Diag    New D1Diag    D2Diag
  ----     ---------------------    ---------   ----------  ----------  ----------   --------
     0        -0.076403638622837    0.000e+00    0.000000    0.000000    0.000000    0.000000
     1        -0.088578864586253    4.989e-02    0.006948    0.000000    0.000000    0.000000
     2        -0.092065586070159    1.525e-02    0.009878    0.000000    0.000000    0.000000
     3        -0.092308593205297    3.332e-03    0.010228    0.000000    0.000000    0.000000
     4        -0.092315294075709    1.053e-03    0.010157    0.000000    0.000000    0.000000
     5        -0.092310673505338    2.695e-04    0.010131    0.000000    0.000000    0.000000
     6        -0.092312544846230    8.891e-05    0.010126    0.000000    0.000000    0.000000
     7        -0.092312984847502    1.980e-05    0.010127    0.000000    0.000000    0.000000
     8        -0.092312798241221    4.855e-06    0.010127    0.000000    0.000000    0.000000
     9        -0.092312844723991    8.187e-07    0.010127    0.000000    0.000000    0.000000
    10        -0.092312845094174    1.753e-07    0.010127    0.000000    0.000000    0.000000
    11        -0.092312844190417    5.539e-08    0.010127    0.000000    0.000000    0.000000

    Iterations converged.

    Largest TIA Amplitudes:
              0   5        -0.0112936827
              0   0         0.0109634227
              1  26        -0.0092195063
              2  33        -0.0092195031
              3  40        -0.0092195030
              1  31         0.0012232708
              3  45         0.0012232707
              2  38         0.0012232707
              0   8         0.0010770481
              2  32        -0.0002213972

    Largest Tia Amplitudes:
              0   8        -0.0015899960
              0   3         0.0012934986
              0   0        -0.0000370000

    Largest TIJAB Amplitudes:
      3   2  11   2         0.0312692027
      3   1  39  25        -0.0306570167
      2   1  32  25        -0.0306570162
      3   2  39  32        -0.0306570041
      3   2  12   3        -0.0291558610
      3   1  15   1        -0.0284326733
      2   1  20   4        -0.0259650293
      2   1  19   1        -0.0257271784
      3   1  16   4        -0.0245343992
      3   2  11   3        -0.0240416667

    Largest TIjAb Amplitudes:
      1   0   4  26         0.0501988906
      3   0   3  42        -0.0447051043
      2   0  20  26         0.0435258209
      3   0  16  26         0.0435258206
      3   0  12  34         0.0435258203
      2   0  12  42         0.0435258202
      1   0  20  34         0.0435258184
      1   0  16  42         0.0435258181
      2   0   3  34         0.0422419278
      1   0   1  26         0.0389068614

    SCF energy       (wfn)                    = -288.888048754783995
    Reference energy (file100)                = -288.888048754783938

    Opposite-spin MP2 correlation energy      =   -0.054239365122686
    Same-spin MP2 correlation energy          =   -0.022164273500151

      * MP2 total energy                      = -288.964452393406759
      * CCSD total energy                     = -288.980361598974355
      * CCSD(T) total energy                     = -288.985146085474867
*** Psi4 exiting successfully. Buy a developer a beer!
