                               Psi4 1.4a3.dev88

  ==> Input File <==

--------------------------------------------------------------------------
# Any line starting with the # character is a comment line
memory 250000 mb
molecule molecule{
-1 4
Si          0.0000000000        0.0000000000        0.0000000000
}

set {
  reference uhf
  basis aug-cc-pv(5+d)z
  scf_type OUT_OF_CORE
  freeze_core true
}

energy('ccsd(t)')
--------------------------------------------------------------------------

    Molecular point group: d2h
    Geometry (in Angstrom), charge = -1, multiplicity = 4:

       Center              X                  Y                   Z               Mass
    ------------   -----------------  -----------------  -----------------  -----------------
         SI           0.000000000000     0.000000000000     0.000000000000    27.976926534650

  Charge       = -1
  Multiplicity = 4
  Basis Set: AUG-CC-PV(5+D)Z
    Blend: AUG-CC-PV(5+D)Z

    Orbital Energies [Eh]
    ---------------------

    Alpha Occupied:

       1Ag   -68.559114     2Ag    -5.903011     1B1u   -4.010089
       1B2u   -4.010089     1B3u   -4.010089     3Ag    -0.400627
       2B1u   -0.062019     2B2u   -0.062019     2B3u   -0.062019

    Alpha Virtual:

       3B1u    0.164831     3B2u    0.164831     3B3u    0.164831
       4Ag     0.178764     5Ag     0.247585     1B1g    0.247585
       1B2g    0.247585     1B3g    0.247585     6Ag     0.247585
       4B1u    0.425912     4B2u    0.425912     4B3u    0.425912
       5B3u    0.444360     5B2u    0.444360     5B1u    0.444360
       1Au     0.444360     6B3u    0.444360     6B2u    0.444360
       6B1u    0.444360     7Ag     0.452490     8Ag     0.491223
       2B3g    0.491223     2B2g    0.491223     2B1g    0.491223
       9Ag     0.491223     3B3g    0.925202    10Ag     0.925202
       3B1g    0.925202    11Ag     0.925202     3B2g    0.925202
       4B1g    0.925202     4B3g    0.925202     4B2g    0.925202
      12Ag     0.925202     7B1u    0.966216     7B2u    0.966216
       7B3u    0.966216     2Au     0.966216     8B1u    0.966216
       8B2u    0.966216     8B3u    0.966216    13Ag     0.971802
       5B3g    0.971802     5B2g    0.971802     5B1g    0.971802
      14Ag     0.971802     9B1u    1.136219     9B2u    1.136219
       9B3u    1.136219    15Ag     1.268218    10B2u    1.930148
      10B3u    1.930148    10B1u    1.930148     3Au     1.930148
      11B2u    1.930148    11B3u    1.930148    11B1u    1.930148
      16Ag     2.008409     6B1g    2.008409     6B2g    2.008409
       6B3g    2.008409    17Ag     2.008409    12B2u    2.060442
      12B3u    2.060442    12B1u    2.060442     4Au     2.060442
      13B3u    2.060442    13B2u    2.060442    13B1u    2.060442
       5Au     2.060442    14B3u    2.060442    14B2u    2.060442
      14B1u    2.060442    18Ag     2.080413     7B1g    2.080413
       7B2g    2.080413     7B3g    2.080413    19Ag     2.080413
       8B1g    2.080413     8B2g    2.080413     8B3g    2.080413
      20Ag     2.080413    15B1u    3.372611    15B2u    3.372611
      15B3u    3.372611    16B3u    3.803259    16B2u    3.803259
      16B1u    3.803259     6Au     3.803259    17B3u    3.803259
      17B2u    3.803259    17B1u    3.803259    21Ag     3.934156
       9B1g    3.934156     9B2g    3.934156     9B3g    3.934156
      22Ag     3.934156    23Ag     4.132174    24Ag     4.458812
      10B1g    4.458812    10B2g    4.458812    10B3g    4.458812
      25Ag     4.458812    11B1g    4.458812    11B2g    4.458812
      11B3g    4.458812    26Ag     4.458812    18B3u    4.501136
      18B2u    4.501136    18B1u    4.501136     7Au     4.501136
      19B3u    4.501136    19B2u    4.501136    19B1u    4.501136
       8Au     4.501136    20B3u    4.501136    20B2u    4.501136
      20B1u    4.501136    27Ag     9.999062    12B1g    9.999062
      12B2g    9.999062    12B3g    9.999062    28Ag     9.999062
      21B2u   13.176316    21B3u   13.176316    21B1u   13.176316
      29Ag    34.688769

    Beta Occupied:

       1Ag   -68.548224     2Ag    -5.891937     1B3u   -3.986988
       1B2u   -3.986988     1B1u   -3.986988     3Ag    -0.204118

    Beta Virtual:

       2B1u    0.157207     2B2u    0.157207     2B3u    0.157207
       4Ag     0.193971     5Ag     0.263282     1B3g    0.263282
       1B2g    0.263282     1B1g    0.263282     6Ag     0.263282
       3B3u    0.275364     3B2u    0.275364     3B1u    0.275364
       4B1u    0.456896     4B2u    0.456896     4B3u    0.456896
       1Au     0.456896     5B1u    0.456896     5B2u    0.456896
       5B3u    0.456896     7Ag     0.489003     6B3u    0.490013
       6B2u    0.490013     6B1u    0.490013     8Ag     0.561105
       2B1g    0.561105     2B2g    0.561105     2B3g    0.561105
       9Ag     0.561105    10Ag     0.942005     3B3g    0.942005
       3B2g    0.942005     3B1g    0.942005    11Ag     0.942005
       4B3g    0.942005     4B2g    0.942005     4B1g    0.942005
      12Ag     0.942005     7B3u    1.002029     7B2u    1.002029
       7B1u    1.002029     2Au     1.002029     8B3u    1.002029
       8B2u    1.002029     8B1u    1.002029    13Ag     1.029170
       5B1g    1.029170     5B2g    1.029170     5B3g    1.029170
      14Ag     1.029170     9B3u    1.184664     9B2u    1.184664
       9B1u    1.184664    15Ag     1.303945    10B3u    1.968644
      10B2u    1.968644    10B1u    1.968644     3Au     1.968644
      11B3u    1.968644    11B2u    1.968644    11B1u    1.968644
      16Ag     2.034414     6B1g    2.034414     6B2g    2.034414
       6B3g    2.034414    17Ag     2.034414    12B2u    2.080687
      12B3u    2.080687    12B1u    2.080687     4Au     2.080687
      13B3u    2.080687    13B2u    2.080687    13B1u    2.080687
       5Au     2.080687    14B3u    2.080687    14B2u    2.080687
      14B1u    2.080687    18Ag     2.109596     7B1g    2.109596
       7B2g    2.109596     7B3g    2.109596    19Ag     2.109596
       8B1g    2.109596     8B2g    2.109596     8B3g    2.109596
      20Ag     2.109596    15B3u    3.400467    15B2u    3.400467
      15B1u    3.400467    16B3u    3.824563    16B2u    3.824563
      16B1u    3.824563     6Au     3.824563    17B3u    3.824563
      17B2u    3.824563    17B1u    3.824563    21Ag     3.948584
       9B1g    3.948584     9B2g    3.948584     9B3g    3.948584
      22Ag     3.948584    23Ag     4.151708    24Ag     4.481334
      10B1g    4.481334    10B2g    4.481334    10B3g    4.481334
      25Ag     4.481334    11B1g    4.481334    11B2g    4.481334
      11B3g    4.481334    26Ag     4.481334    18B3u    4.522137
      18B2u    4.522137    18B1u    4.522137     7Au     4.522137
      19B3u    4.522137    19B2u    4.522137    19B1u    4.522137
       8Au     4.522137    20B3u    4.522137    20B2u    4.522137
      20B1u    4.522137    27Ag    10.009825    12B1g   10.009825
      12B2g   10.009825    12B3g   10.009825    28Ag    10.009825
      21B3u   13.192801    21B2u   13.192801    21B1u   13.192801
      29Ag    34.698313

    Final Occupation by Irrep:
             Ag   B1g   B2g   B3g    Au   B1u   B2u   B3u
    DOCC [     3,    0,    0,    0,    0,    1,    1,    1 ]
    SOCC [     0,    0,    0,    0,    0,    1,    1,    1 ]

  @UHF Final Energy:  -288.88998087551795

   => Energetics <=

    Nuclear Repulsion Energy =              0.0000000000000000
    One-Electron Energy =                -404.0956402808226926
    Two-Electron Energy =                 115.2056594053047291
    Total Energy =                       -288.8899808755179492

  UHF NO Occupations:
  HONO-2 :    2B3u 1.0000000
  HONO-1 :    2B1u 1.0000000
  HONO-0 :    2B2u 1.0000000
  LUNO+0 :    4 Ag 0.0003661
  LUNO+1 :    3B1u 0.0000031
  LUNO+2 :    3B2u 0.0000031
  LUNO+3 :    3B3u 0.0000031

Computation Completed

Properties will be evaluated at   0.000000,   0.000000,   0.000000 [a0]

Properties computed using the SCF density matrix

  Nuclear Dipole Moment: [e a0]
     X:     0.0000      Y:     0.0000      Z:     0.0000

  Electronic Dipole Moment: [e a0]
     X:     0.0000      Y:     0.0000      Z:     0.0000

  Dipole Moment: [e a0]
     X:     0.0000      Y:     0.0000      Z:     0.0000     Total:     0.0000

  Dipole Moment: [D]
     X:     0.0000      Y:     0.0000      Z:     0.0000     Total:     0.0000

*** tstop() called on n412-041.vsc4.prov at Wed Jan 20 21:57:23 2021
Module time:
	user time   =      42.44 seconds =       0.71 minutes
	system time =       3.31 seconds =       0.06 minutes
	total time  =         28 seconds =       0.47 minutes
Total time:
	user time   =      42.44 seconds =       0.71 minutes
	system time =       3.31 seconds =       0.06 minutes
	total time  =         28 seconds =       0.47 minutes

*** tstart() called on n412-041.vsc4.prov
*** at Wed Jan 20 21:57:23 2021

	Wfn Parameters:
	--------------------
	Wavefunction         = CCSD_T
	Number of irreps     = 8
	Number of MOs        = 136
	Number of active MOs = 131
	AO-Basis             = NONE
	Semicanonical        = false
	Reference            = UHF
	Print Level          = 1

	IRREP	# MOs	# FZDC	# DOCC	# SOCC	# VIRT	# FZVR
	-----	-----	------	------	------	------	------
	 Ag	   29	    2	    1	    0	    26	    0
	 B1g	   12	    0	    0	    0	    12	    0
	 B2g	   12	    0	    0	    0	    12	    0
	 B3g	   12	    0	    0	    0	    12	    0
	 Au	   8	    0	    0	    0	    8	    0
	 B1u	   21	    1	    0	    1	    19	    0
	 B2u	   21	    1	    0	    1	    19	    0
	 B3u	   21	    1	    0	    1	    19	    0
	Transforming integrals...
	IWL integrals will be deleted.
	(OO|OO)...
	Presorting SO-basis two-electron integrals.
	Sorting File: SO Ints (nn|nn) nbuckets = 1
	Constructing frozen core operators
	Starting AA/AB first half-transformation.
	Sorting AA/AB half-transformed integrals.
	Starting BB first half-transformation.
	Sorting BB half-transformed integrals.
	First half integral transformation complete.
	Starting AA second half-transformation.
	Starting AB second half-transformation.
	Starting BB second half-transformation.
	Two-electron integral transformation complete.
	(OO|OV)...
	Starting AA second half-transformation.
	Starting AB second half-transformation.
	Starting BB second half-transformation.
	Two-electron integral transformation complete.
	(OO|VV)...
	Starting AA second half-transformation.
	Starting AB second half-transformation.
	Starting BB second half-transformation.
	Two-electron integral transformation complete.
	(OV|OO)...
	Starting AA/AB first half-transformation.
	Sorting AA/AB half-transformed integrals.
	Starting BB first half-transformation.
	Sorting BB half-transformed integrals.
	First half integral transformation complete.
	Starting AA second half-transformation.
	Starting AB second half-transformation.
	Starting BB second half-transformation.
	Two-electron integral transformation complete.
	(OV|OV)...
	Starting AA second half-transformation.
	Starting AB second half-transformation.
	Starting BB second half-transformation.
	Two-electron integral transformation complete.
	(OV|VV)...
	Starting AA second half-transformation.
	Starting AB second half-transformation.
	Starting BB second half-transformation.
	Two-electron integral transformation complete.
	(VV|OO)...
	Starting AA/AB first half-transformation.
	Sorting AA/AB half-transformed integrals.
	Starting BB first half-transformation.
	Sorting BB half-transformed integrals.
	First half integral transformation complete.
	Starting AA second half-transformation.
	Starting AB second half-transformation.
	Starting BB second half-transformation.
	Two-electron integral transformation complete.
	(VV|OV)...
	Starting AA second half-transformation.
	Starting AB second half-transformation.
	Starting BB second half-transformation.
	Two-electron integral transformation complete.
	(VV|VV)...
	Starting AA second half-transformation.
	Starting AB second half-transformation.
	Starting BB second half-transformation.
	Two-electron integral transformation complete.
	Frozen core energy     =   -285.17695506376185

	Size of irrep 0 of <AB|CD> integrals:      1.132 (MW) /      9.057 (MB)
	Size of irrep 1 of <AB|CD> integrals:      0.939 (MW) /      7.512 (MB)
	Size of irrep 2 of <AB|CD> integrals:      0.939 (MW) /      7.512 (MB)
	Size of irrep 3 of <AB|CD> integrals:      0.939 (MW) /      7.512 (MB)
	Size of irrep 4 of <AB|CD> integrals:      0.796 (MW) /      6.365 (MB)
	Size of irrep 5 of <AB|CD> integrals:      1.094 (MW) /      8.753 (MB)
	Size of irrep 6 of <AB|CD> integrals:      1.094 (MW) /      8.753 (MB)
	Size of irrep 7 of <AB|CD> integrals:      1.094 (MW) /      8.753 (MB)
	Total:                                     8.027 (MW) /     64.216 (MB)

	Size of irrep 0 of <ab|cd> integrals:      1.257 (MW) /     10.053 (MB)
	Size of irrep 1 of <ab|cd> integrals:      1.032 (MW) /      8.258 (MB)
	Size of irrep 2 of <ab|cd> integrals:      1.032 (MW) /      8.258 (MB)
	Size of irrep 3 of <ab|cd> integrals:      1.032 (MW) /      8.258 (MB)
	Size of irrep 4 of <ab|cd> integrals:      0.861 (MW) /      6.889 (MB)
	Size of irrep 5 of <ab|cd> integrals:      1.201 (MW) /      9.610 (MB)
	Size of irrep 6 of <ab|cd> integrals:      1.201 (MW) /      9.610 (MB)
	Size of irrep 7 of <ab|cd> integrals:      1.201 (MW) /      9.610 (MB)
	Total:                                     8.818 (MW) /     70.546 (MB)

	Size of irrep 0 of <Ab|Cd> integrals:      5.345 (MW) /     42.763 (MB)
	Size of irrep 1 of <Ab|Cd> integrals:      3.936 (MW) /     31.490 (MB)
	Size of irrep 2 of <Ab|Cd> integrals:      3.936 (MW) /     31.490 (MB)
	Size of irrep 3 of <Ab|Cd> integrals:      3.936 (MW) /     31.490 (MB)
	Size of irrep 4 of <Ab|Cd> integrals:      3.312 (MW) /     26.499 (MB)
	Size of irrep 5 of <Ab|Cd> integrals:      4.588 (MW) /     36.705 (MB)
	Size of irrep 6 of <Ab|Cd> integrals:      4.588 (MW) /     36.705 (MB)
	Size of irrep 7 of <Ab|Cd> integrals:      4.588 (MW) /     36.705 (MB)
	Total:                                    34.231 (MW) /    273.848 (MB)

	Size of irrep 0 of <IA|BC> integrals:      0.187 (MW) /      1.497 (MB)
	Size of irrep 1 of <IA|BC> integrals:      0.112 (MW) /      0.899 (MB)
	Size of irrep 2 of <IA|BC> integrals:      0.112 (MW) /      0.899 (MB)
	Size of irrep 3 of <IA|BC> integrals:      0.112 (MW) /      0.899 (MB)
	Size of irrep 4 of <IA|BC> integrals:      0.078 (MW) /      0.628 (MB)
	Size of irrep 5 of <IA|BC> integrals:      0.144 (MW) /      1.155 (MB)
	Size of irrep 6 of <IA|BC> integrals:      0.144 (MW) /      1.155 (MB)
	Size of irrep 7 of <IA|BC> integrals:      0.144 (MW) /      1.155 (MB)
	Total:                                     1.036 (MW) /      8.287 (MB)

	Size of irrep 0 of <ia|bc> integrals:      0.062 (MW) /      0.493 (MB)
	Size of irrep 1 of <ia|bc> integrals:      0.024 (MW) /      0.195 (MB)
	Size of irrep 2 of <ia|bc> integrals:      0.024 (MW) /      0.195 (MB)
	Size of irrep 3 of <ia|bc> integrals:      0.024 (MW) /      0.195 (MB)
	Size of irrep 4 of <ia|bc> integrals:      0.015 (MW) /      0.119 (MB)
	Size of irrep 5 of <ia|bc> integrals:      0.044 (MW) /      0.351 (MB)
	Size of irrep 6 of <ia|bc> integrals:      0.044 (MW) /      0.351 (MB)
	Size of irrep 7 of <ia|bc> integrals:      0.044 (MW) /      0.351 (MB)
	Total:                                     0.281 (MW) /      2.250 (MB)

	Size of irrep 0 of <Ia|Bc> integrals:      0.199 (MW) /      1.591 (MB)
	Size of irrep 1 of <Ia|Bc> integrals:      0.119 (MW) /      0.952 (MB)
	Size of irrep 2 of <Ia|Bc> integrals:      0.119 (MW) /      0.952 (MB)
	Size of irrep 3 of <Ia|Bc> integrals:      0.119 (MW) /      0.952 (MB)
	Size of irrep 4 of <Ia|Bc> integrals:      0.080 (MW) /      0.641 (MB)
	Size of irrep 5 of <Ia|Bc> integrals:      0.150 (MW) /      1.200 (MB)
	Size of irrep 6 of <Ia|Bc> integrals:      0.150 (MW) /      1.200 (MB)
	Size of irrep 7 of <Ia|Bc> integrals:      0.150 (MW) /      1.200 (MB)
	Total:                                     1.086 (MW) /      8.687 (MB)

	Size of irrep 0 of <iA|bC> integrals:      0.060 (MW) /      0.481 (MB)
	Size of irrep 1 of <iA|bC> integrals:      0.024 (MW) /      0.190 (MB)
	Size of irrep 2 of <iA|bC> integrals:      0.024 (MW) /      0.190 (MB)
	Size of irrep 3 of <iA|bC> integrals:      0.024 (MW) /      0.190 (MB)
	Size of irrep 4 of <iA|bC> integrals:      0.015 (MW) /      0.116 (MB)
	Size of irrep 5 of <iA|bC> integrals:      0.041 (MW) /      0.326 (MB)
	Size of irrep 6 of <iA|bC> integrals:      0.041 (MW) /      0.326 (MB)
	Size of irrep 7 of <iA|bC> integrals:      0.041 (MW) /      0.326 (MB)
	Total:                                     0.268 (MW) /      2.146 (MB)

	Size of irrep 0 of tIjAb amplitudes:       0.002 (MW) /      0.018 (MB)
	Size of irrep 1 of tIjAb amplitudes:       0.000 (MW) /      0.000 (MB)
	Size of irrep 2 of tIjAb amplitudes:       0.000 (MW) /      0.000 (MB)
	Size of irrep 3 of tIjAb amplitudes:       0.000 (MW) /      0.000 (MB)
	Size of irrep 4 of tIjAb amplitudes:       0.000 (MW) /      0.000 (MB)
	Size of irrep 5 of tIjAb amplitudes:       0.002 (MW) /      0.017 (MB)
	Size of irrep 6 of tIjAb amplitudes:       0.002 (MW) /      0.017 (MB)
	Size of irrep 7 of tIjAb amplitudes:       0.002 (MW) /      0.017 (MB)
	Total:                                     0.009 (MW) /      0.070 (MB)

	Nuclear Rep. energy          =      0.00000000000000
	SCF energy                   =   -288.88998087551795
	One-electron energy          =     -6.63524903050926
	Two-electron (AA) energy     =      1.54554223118671
	Two-electron (BB) energy     =      0.00000000000000
	Two-electron (AB) energy     =      1.37668098756599
	Two-electron energy          =      2.92222321875270
	Reference energy             =   -288.88998087551840

*** tstop() called on n412-041.vsc4.prov at Wed Jan 20 21:57:44 2021
Module time:
	user time   =       4.12 seconds =       0.07 minutes
	system time =       3.29 seconds =       0.05 minutes
	total time  =         21 seconds =       0.35 minutes
Total time:
	user time   =      46.56 seconds =       0.78 minutes
	system time =       6.60 seconds =       0.11 minutes
	total time  =         49 seconds =       0.82 minutes
            **************************
            *                        *
            *        CCENERGY        *
            *                        *
            **************************

    Nuclear Rep. energy (wfn)     =    0.000000000000000
    SCF energy          (wfn)     = -288.889980875517949
    Reference energy    (file100) = -288.889980875518404

    Input parameters:
    -----------------
    Wave function   =     CCSD_T
    Reference wfn   =     UHF
    Brueckner       =     No
    Memory (Mbytes) =     250000.0
    Maxiter         =     50
    R_Convergence   =     1.0e-07
    E_Convergence   =     1.0e-06
    Restart         =     Yes
    DIIS            =     Yes
    AO Basis        =     NONE
    ABCD            =     NEW
    Cache Level     =     2
    Cache Type      =     LRU
    Print Level     =     1
    Num. of threads =     48
    # Amps to Print =     10
    Print MP2 Amps? =     No
    Analyze T2 Amps =     No
    Print Pair Ener =     No
    Local CC        =     No
    SCS-MP2         =     False
    SCSN-MP2        =     False
    SCS-CCSD        =     False

MP2 correlation energy -0.0828108000160187
                Solving CC Amplitude Equations
                ------------------------------
  Iter             Energy              RMS        T1Diag      D1Diag    New D1Diag    D2Diag
  ----     ---------------------    ---------   ----------  ----------  ----------   --------
     0        -0.082810800016019    0.000e+00    0.000000    0.000000    0.000000    0.000000
     1        -0.091766459755418    4.760e-02    0.008512    0.000000    0.000000    0.000000
     2        -0.095316326798038    1.533e-02    0.011038    0.000000    0.000000    0.000000
     3        -0.095486442239261    3.332e-03    0.011437    0.000000    0.000000    0.000000
     4        -0.095524338421541    1.415e-03    0.011410    0.000000    0.000000    0.000000
     5        -0.095525881675587    5.379e-04    0.011379    0.000000    0.000000    0.000000
     6        -0.095525028998434    1.362e-04    0.011383    0.000000    0.000000    0.000000
     7        -0.095526501049509    3.413e-05    0.011386    0.000000    0.000000    0.000000

      * MP2 total energy                      = -288.972791675534438
      * CCSD total energy                     = -288.985507337218564
      * CCSD(T) total energy                     = -288.991002799689170
*** Psi4 exiting successfully. Buy a developer a beer!
