                               Psi4 1.2a1.dev938

  ==> Input File <==

--------------------------------------------------------------------------
# Any line starting with the # character is a comment line
memory 250000 mb
molecule molecule{
0 3
Si          0.0000000000        0.0000000000        0.0000000000
}

set {
  reference uhf
  basis aug-cc-pv(t+d)z
  scf_type OUT_OF_CORE
  freeze_core true
}

energy('ccsd')
--------------------------------------------------------------------------

    Molecular point group: d2h
    Geometry (in Angstrom), charge = 0, multiplicity = 3:

       Center              X                  Y                   Z               Mass
    ------------   -----------------  -----------------  -----------------  -----------------
          SI          0.000000000000     0.000000000000     0.000000000000    27.976926532460

  Charge       = 0
  Multiplicity = 3
  Basis Set: AUG-CC-PV(T+D)Z
    Blend: AUG-CC-PV(T+D)Z

    Orbital Energies (a.u.)
    -----------------------

    Alpha Occupied:

       1Ag   -68.817443     2Ag    -6.161832     1B1u   -4.269630
       1B2u   -4.269630     1B3u   -4.259216     3Ag    -0.620345
       2B2u   -0.301325     2B1u   -0.301325

    Alpha Virtual:

       2B3u   -0.010337     4Ag     0.066382     3B1u    0.070562
       3B2u    0.070562     3B3u    0.082658     5Ag     0.146566
       1B3g    0.146566     1B2g    0.149796     1B1g    0.149796
       6Ag     0.151284     7Ag     0.424159     2B3g    0.424159
       2B2g    0.438207     2B1g    0.438207     4B2u    0.439298
       4B1u    0.439298     8Ag     0.443734     4B3u    0.460808
       9Ag     0.464135     5B1u    0.486590     5B2u    0.486590
       5B3u    0.486851     6B3u    0.489334     1Au     0.489334
       6B2u    0.494850     6B1u    0.494850    10Ag     1.230130
       3B2g    1.232181     3B1g    1.232181     3B3g    1.238458
      11Ag     1.238458     7B3u    1.421745     7B2u    1.423253
       7B1u    1.423253     2Au     1.427692     8B3u    1.427692
       8B2u    1.434810     8B1u    1.434810     9B2u    2.498241
       9B1u    2.498241     9B3u    2.502238    12Ag     2.543937
      13Ag     4.767707     4B1g    4.771649     4B2g    4.771649
       4B3g    4.783611    14Ag     4.783611

    Beta Occupied:

       1Ag   -68.807863     2Ag    -6.150887     1B3u   -4.254328
       1B1u   -4.241136     1B2u   -4.241136     3Ag    -0.463753

    Beta Virtual:

       2B3u    0.005417     2B1u    0.034898     2B2u    0.034898
       4Ag     0.076585     3B3u    0.088931     3B1u    0.115307
       3B2u    0.115307     5Ag     0.161981     1B2g    0.164815
       1B1g    0.164815     6Ag     0.175709     1B3g    0.175709
       4B3u    0.470804     7Ag     0.477129     2B2g    0.486253
       2B1g    0.486253     8Ag     0.495091     4B2u    0.497446
       4B1u    0.497446     5B3u    0.498631     6B3u    0.507686
       1Au     0.507686     5B2u    0.510333     5B1u    0.510333
       9Ag     0.515986     2B3g    0.515986     6B2u    0.521953
       6B1u    0.521953    10Ag     1.248818     3B2g    1.257430
       3B1g    1.257430     3B3g    1.286901    11Ag     1.286901
       7B3u    1.446214     7B2u    1.451203     7B1u    1.451203
       2Au     1.466403     8B3u    1.466403     8B1u    1.492935
       8B2u    1.492935     9B3u    2.509319     9B2u    2.542393
       9B1u    2.542393    12Ag     2.566218    13Ag     4.772363
       4B1g    4.778047     4B2g    4.778047     4B3g    4.795607
      14Ag     4.795607

    Final Occupation by Irrep:
             Ag   B1g   B2g   B3g    Au   B1u   B2u   B3u
    DOCC [     3,    0,    0,    0,    0,    1,    1,    1 ]
    SOCC [     0,    0,    0,    0,    0,    1,    1,    0 ]

  Energy converged.

  @UHF Final Energy:  -288.85669141745888

   => Energetics <=

    Nuclear Repulsion Energy =              0.0000000000000000
    One-Electron Energy =                -400.5535331364060312
    Two-Electron Energy =                 111.6968417189471694
    Total Energy =                       -288.8566914174588760

  UHF NO Occupations:
  HONO-2 :    3 Ag 1.9922255
  HONO-1 :    2B2u 1.0000000
  HONO-0 :    2B1u 1.0000000
  LUNO+0 :    4 Ag 0.0077745
  LUNO+1 :    3B1u 0.0000045
  LUNO+2 :    3B2u 0.0000045
  LUNO+3 :    2B3u 0.0000004

Properties will be evaluated at   0.000000,   0.000000,   0.000000 Bohr

Properties computed using the SCF density matrix

  Nuclear Dipole Moment: (a.u.)
     X:     0.0000      Y:     0.0000      Z:     0.0000

  Electronic Dipole Moment: (a.u.)
     X:     0.0000      Y:     0.0000      Z:     0.0000

  Dipole Moment: (a.u.)
     X:     0.0000      Y:     0.0000      Z:     0.0000     Total:     0.0000

  Dipole Moment: (Debye)
     X:     0.0000      Y:     0.0000      Z:     0.0000     Total:     0.0000

*** tstop() called on cqc05 at Thu Aug 20 20:10:45 2020
Module time:
	user time   =       0.56 seconds =       0.01 minutes
	system time =       0.04 seconds =       0.00 minutes
	total time  =          0 seconds =       0.00 minutes
Total time:
	user time   =       0.56 seconds =       0.01 minutes
	system time =       0.04 seconds =       0.00 minutes
	total time  =          0 seconds =       0.00 minutes

*** tstart() called on cqc05
*** at Thu Aug 20 20:10:45 2020

	Wfn Parameters:
	--------------------
	Wavefunction         = CCSD
	Number of irreps     = 8
	Number of MOs        = 55
	Number of active MOs = 50
	AO-Basis             = NONE
	Semicanonical        = false
	Reference            = UHF
	Print Level          = 1

	IRREP	# MOs	# FZDC	# DOCC	# SOCC	# VIRT	# FZVR
	-----	-----	------	------	------	------	------
	 Ag	   14	    2	    1	    0	    11	    0
	 B1g	   4	    0	    0	    0	    4	    0
	 B2g	   4	    0	    0	    0	    4	    0
	 B3g	   4	    0	    0	    0	    4	    0
	 Au	   2	    0	    0	    0	    2	    0
	 B1u	   9	    1	    0	    1	    7	    0
	 B2u	   9	    1	    0	    1	    7	    0
	 B3u	   9	    1	    0	    0	    8	    0
	Transforming integrals...
	IWL integrals will be deleted.
	(OO|OO)...
	Presorting SO-basis two-electron integrals.
	Sorting File: SO Ints (nn|nn) nbuckets = 1
	Transforming the one-electron integrals and constructing Fock matrices
	Starting AA/AB first half-transformation.
	Sorting AA/AB half-transformed integrals.
	Starting BB first half-transformation.
	Sorting BB half-transformed integrals.
	First half integral transformation complete.
	Starting AA second half-transformation.
	Starting AB second half-transformation.
	Starting BB second half-transformation.
	Two-electron integral transformation complete.
	(OO|OV)...
	Starting AA second half-transformation.
	Starting AB second half-transformation.
	Starting BB second half-transformation.
	Two-electron integral transformation complete.
	(OO|VV)...
	Starting AA second half-transformation.
	Starting AB second half-transformation.
	Starting BB second half-transformation.
	Two-electron integral transformation complete.
	(OV|OO)...
	Starting AA/AB first half-transformation.
	Sorting AA/AB half-transformed integrals.
	Starting BB first half-transformation.
	Sorting BB half-transformed integrals.
	First half integral transformation complete.
	Starting AA second half-transformation.
	Starting AB second half-transformation.
	Starting BB second half-transformation.
	Two-electron integral transformation complete.
	(OV|OV)...
	Starting AA second half-transformation.
	Starting AB second half-transformation.
	Starting BB second half-transformation.
	Two-electron integral transformation complete.
	(OV|VV)...
	Starting AA second half-transformation.
	Starting AB second half-transformation.
	Starting BB second half-transformation.
	Two-electron integral transformation complete.
	(VV|OO)...
	Starting AA/AB first half-transformation.
	Sorting AA/AB half-transformed integrals.
	Starting BB first half-transformation.
	Sorting BB half-transformed integrals.
	First half integral transformation complete.
	Starting AA second half-transformation.
	Starting AB second half-transformation.
	Starting BB second half-transformation.
	Two-electron integral transformation complete.
	(VV|OV)...
	Starting AA second half-transformation.
	Starting AB second half-transformation.
	Starting BB second half-transformation.
	Two-electron integral transformation complete.
	(VV|VV)...
	Starting AA second half-transformation.
	Starting AB second half-transformation.
	Starting BB second half-transformation.
	Two-electron integral transformation complete.
	Frozen core energy     =   -285.17532338911599

	Size of irrep 0 of <AB|CD> integrals:      0.021 (MW) /      0.166 (MB)
	Size of irrep 1 of <AB|CD> integrals:      0.017 (MW) /      0.135 (MB)
	Size of irrep 2 of <AB|CD> integrals:      0.017 (MW) /      0.135 (MB)
	Size of irrep 3 of <AB|CD> integrals:      0.016 (MW) /      0.125 (MB)
	Size of irrep 4 of <AB|CD> integrals:      0.012 (MW) /      0.097 (MB)
	Size of irrep 5 of <AB|CD> integrals:      0.021 (MW) /      0.168 (MB)
	Size of irrep 6 of <AB|CD> integrals:      0.021 (MW) /      0.168 (MB)
	Size of irrep 7 of <AB|CD> integrals:      0.023 (MW) /      0.185 (MB)
	Total:                                     0.147 (MW) /      1.179 (MB)

	Size of irrep 0 of <ab|cd> integrals:      0.025 (MW) /      0.200 (MB)
	Size of irrep 1 of <ab|cd> integrals:      0.020 (MW) /      0.157 (MB)
	Size of irrep 2 of <ab|cd> integrals:      0.020 (MW) /      0.157 (MB)
	Size of irrep 3 of <ab|cd> integrals:      0.020 (MW) /      0.157 (MB)
	Size of irrep 4 of <ab|cd> integrals:      0.014 (MW) /      0.111 (MB)
	Size of irrep 5 of <ab|cd> integrals:      0.026 (MW) /      0.205 (MB)
	Size of irrep 6 of <ab|cd> integrals:      0.026 (MW) /      0.205 (MB)
	Size of irrep 7 of <ab|cd> integrals:      0.026 (MW) /      0.205 (MB)
	Total:                                     0.174 (MW) /      1.396 (MB)

	Size of irrep 0 of <Ab|Cd> integrals:      0.122 (MW) /      0.974 (MB)
	Size of irrep 1 of <Ab|Cd> integrals:      0.073 (MW) /      0.583 (MB)
	Size of irrep 2 of <Ab|Cd> integrals:      0.073 (MW) /      0.583 (MB)
	Size of irrep 3 of <Ab|Cd> integrals:      0.070 (MW) /      0.558 (MB)
	Size of irrep 4 of <Ab|Cd> integrals:      0.052 (MW) /      0.416 (MB)
	Size of irrep 5 of <Ab|Cd> integrals:      0.093 (MW) /      0.744 (MB)
	Size of irrep 6 of <Ab|Cd> integrals:      0.093 (MW) /      0.744 (MB)
	Size of irrep 7 of <Ab|Cd> integrals:      0.097 (MW) /      0.779 (MB)
	Total:                                     0.673 (MW) /      5.381 (MB)

	Size of irrep 0 of <IA|BC> integrals:      0.008 (MW) /      0.067 (MB)
	Size of irrep 1 of <IA|BC> integrals:      0.004 (MW) /      0.029 (MB)
	Size of irrep 2 of <IA|BC> integrals:      0.004 (MW) /      0.029 (MB)
	Size of irrep 3 of <IA|BC> integrals:      0.004 (MW) /      0.036 (MB)
	Size of irrep 4 of <IA|BC> integrals:      0.002 (MW) /      0.018 (MB)
	Size of irrep 5 of <IA|BC> integrals:      0.006 (MW) /      0.051 (MB)
	Size of irrep 6 of <IA|BC> integrals:      0.006 (MW) /      0.051 (MB)
	Size of irrep 7 of <IA|BC> integrals:      0.005 (MW) /      0.039 (MB)
	Total:                                     0.040 (MW) /      0.320 (MB)

	Size of irrep 0 of <ia|bc> integrals:      0.004 (MW) /      0.032 (MB)
	Size of irrep 1 of <ia|bc> integrals:      0.001 (MW) /      0.009 (MB)
	Size of irrep 2 of <ia|bc> integrals:      0.001 (MW) /      0.009 (MB)
	Size of irrep 3 of <ia|bc> integrals:      0.001 (MW) /      0.009 (MB)
	Size of irrep 4 of <ia|bc> integrals:      0.000 (MW) /      0.004 (MB)
	Size of irrep 5 of <ia|bc> integrals:      0.003 (MW) /      0.020 (MB)
	Size of irrep 6 of <ia|bc> integrals:      0.003 (MW) /      0.020 (MB)
	Size of irrep 7 of <ia|bc> integrals:      0.003 (MW) /      0.020 (MB)
	Total:                                     0.016 (MW) /      0.124 (MB)

	Size of irrep 0 of <Ia|Bc> integrals:      0.009 (MW) /      0.075 (MB)
	Size of irrep 1 of <Ia|Bc> integrals:      0.004 (MW) /      0.030 (MB)
	Size of irrep 2 of <Ia|Bc> integrals:      0.004 (MW) /      0.030 (MB)
	Size of irrep 3 of <Ia|Bc> integrals:      0.005 (MW) /      0.042 (MB)
	Size of irrep 4 of <Ia|Bc> integrals:      0.002 (MW) /      0.018 (MB)
	Size of irrep 5 of <Ia|Bc> integrals:      0.007 (MW) /      0.056 (MB)
	Size of irrep 6 of <Ia|Bc> integrals:      0.007 (MW) /      0.056 (MB)
	Size of irrep 7 of <Ia|Bc> integrals:      0.005 (MW) /      0.040 (MB)
	Total:                                     0.044 (MW) /      0.349 (MB)

	Size of irrep 0 of <iA|bC> integrals:      0.004 (MW) /      0.031 (MB)
	Size of irrep 1 of <iA|bC> integrals:      0.001 (MW) /      0.009 (MB)
	Size of irrep 2 of <iA|bC> integrals:      0.001 (MW) /      0.009 (MB)
	Size of irrep 3 of <iA|bC> integrals:      0.001 (MW) /      0.008 (MB)
	Size of irrep 4 of <iA|bC> integrals:      0.000 (MW) /      0.004 (MB)
	Size of irrep 5 of <iA|bC> integrals:      0.002 (MW) /      0.017 (MB)
	Size of irrep 6 of <iA|bC> integrals:      0.002 (MW) /      0.017 (MB)
	Size of irrep 7 of <iA|bC> integrals:      0.002 (MW) /      0.020 (MB)
	Total:                                     0.014 (MW) /      0.114 (MB)

	Size of irrep 0 of tIjAb amplitudes:       0.000 (MW) /      0.003 (MB)
	Size of irrep 1 of tIjAb amplitudes:       0.000 (MW) /      0.000 (MB)
	Size of irrep 2 of tIjAb amplitudes:       0.000 (MW) /      0.000 (MB)
	Size of irrep 3 of tIjAb amplitudes:       0.000 (MW) /      0.000 (MB)
	Size of irrep 4 of tIjAb amplitudes:       0.000 (MW) /      0.000 (MB)
	Size of irrep 5 of tIjAb amplitudes:       0.000 (MW) /      0.002 (MB)
	Size of irrep 6 of tIjAb amplitudes:       0.000 (MW) /      0.002 (MB)
	Size of irrep 7 of tIjAb amplitudes:       0.000 (MW) /      0.000 (MB)
	Total:                                     0.001 (MW) /      0.008 (MB)

	Nuclear Rep. energy          =      0.00000000000000
	SCF energy                   =   -288.85669141745888
	One-electron energy          =     -5.67598811972453
	Two-electron (AA) energy     =      0.86259166332088
	Two-electron (BB) energy     =      0.00000000000000
	Two-electron (AB) energy     =      1.13202842806029
	Two-electron energy          =      1.99462009138117
	Reference energy             =   -288.85669141745933

*** tstop() called on cqc05 at Thu Aug 20 20:10:46 2020
Module time:
	user time   =       0.12 seconds =       0.00 minutes
	system time =       0.08 seconds =       0.00 minutes
	total time  =          1 seconds =       0.02 minutes
Total time:
	user time   =       0.68 seconds =       0.01 minutes
	system time =       0.12 seconds =       0.00 minutes
	total time  =          1 seconds =       0.02 minutes

*** tstart() called on cqc05
*** at Thu Aug 20 20:10:46 2020

            **************************
            *                        *
            *        CCENERGY        *
            *                        *
            **************************

    Nuclear Rep. energy (wfn)     =    0.000000000000000
    SCF energy          (wfn)     = -288.856691417458876
    Reference energy    (file100) = -288.856691417459331

    Input parameters:
    -----------------
    Wave function   =     CCSD
    Reference wfn   =     UHF
    Brueckner       =     No
    Memory (Mbytes) =     250000.0
    Maxiter         =     50
    R_Convergence   =     1.0e-07
    E_Convergence   =     1.0e-06
    Restart         =     Yes
    DIIS            =     Yes
    AO Basis        =     NONE
    ABCD            =     NEW
    Cache Level     =     2
    Cache Type      =     LRU
    Print Level     =     1
    Num. of threads =     4
    # Amps to Print =     10
    Print MP2 Amps? =     No
    Analyze T2 Amps =     No
    Print Pair Ener =     No
    Local CC        =     No
    SCS-MP2         =     False
    SCSN-MP2        =     False
    SCS-CCSD        =     False

MP2 correlation energy -0.0566963503952886
                Solving CC Amplitude Equations
                ------------------------------
  Iter             Energy              RMS        T1Diag      D1Diag    New D1Diag    D2Diag
  ----     ---------------------    ---------   ----------  ----------  ----------   --------
     0        -0.056696350395289    0.000e+00    0.000000    0.000000    0.000000    0.000000
     1        -0.069036378160359    5.521e-02    0.008525    0.000000    0.000000    0.000000
     2        -0.074385936746019    2.216e-02    0.015152    0.000000    0.000000    0.000000
     3        -0.074812459346763    5.831e-03    0.017117    0.000000    0.000000    0.000000
     4        -0.074886422046377    1.351e-03    0.017372    0.000000    0.000000    0.000000
     5        -0.074864163682564    2.674e-04    0.017349    0.000000    0.000000    0.000000
     6        -0.074875702677132    6.742e-05    0.017364    0.000000    0.000000    0.000000
     7        -0.074872662880099    1.542e-05    0.017364    0.000000    0.000000    0.000000
     8        -0.074872941471880    3.063e-06    0.017365    0.000000    0.000000    0.000000
     9        -0.074872972414000    7.535e-07    0.017365    0.000000    0.000000    0.000000
    10        -0.074872975759997    2.033e-07    0.017365    0.000000    0.000000    0.000000
    11        -0.074872975254784    6.225e-08    0.017365    0.000000    0.000000    0.000000
    11        -0.074872975254784    6.225e-08    0.017365    0.000000    0.000000    0.000000

    Iterations converged.

    CCSD corr. energy   =   -0.074872975254784
    PPL corr. energy    =    0.027584572238279
    OS PPL corr. energy =    0.024690658220757
    SS PPL corr. energy =    0.002893914017522
    Largest TIA Amplitudes:
              0   4        -0.0206389941
              0   2        -0.0177037701
              0   5         0.0107930357
              0   0        -0.0071429142
              0   6        -0.0053684421
              1  26         0.0052484382
              2  33         0.0052484382
              1  27         0.0050439897
              2  34         0.0050439897
              1  25        -0.0034127150

    Largest Tia Amplitudes:
              0   0         0.0084589790
              0   3        -0.0055307143
              0   1        -0.0035775412
              0   4        -0.0025744689
              0   8        -0.0016562635
              0   6        -0.0009160223
              0   9         0.0000461081

    Largest TIJAB Amplitudes:
      2   1  20   3        -0.0445909974
      2   1  19   1        -0.0342779386
      2   1  19   3        -0.0342289670
      2   1  20   1        -0.0342289670
      2   1  33  26        -0.0291049169
      2   1  16  12         0.0226183462
      1   0  39  16        -0.0201580979
      2   0  39  12        -0.0201580979
      1   0  26   5        -0.0178687878
      2   0  33   5        -0.0178687878

    Largest TIjAb Amplitudes:
      0   0  39  41         0.1077820896
      0   0  39  42         0.0746798280

      * MP2 total energy                      = -288.913387767854601
      * CCSD total energy                     = -288.931564392714108
*** Psi4 exiting successfully. Buy a developer a beer!
