                               Psi4 1.2a1.dev939

  ==> Input File <==

--------------------------------------------------------------------------
# Any line starting with the # character is a comment line
memory 250000 mb
molecule molecule{
1 4
S          0.0000000000        0.0000000000        0.0000000000
}

set {
  reference uhf
  basis aug-cc-pv(6+d)z
  scf_type OUT_OF_CORE
  freeze_core true
}

energy('ccsd')
--------------------------------------------------------------------------

    Molecular point group: d2h
    Geometry (in Angstrom), charge = 1, multiplicity = 4:

       Center              X                  Y                   Z               Mass
    ------------   -----------------  -----------------  -----------------  -----------------
           S          0.000000000000     0.000000000000     0.000000000000    31.972070999000

  Charge       = 1
  Multiplicity = 4
  Basis Set: AUG-CC-PV(6+D)Z
    Blend: AUG-CC-PV(6+D)Z

    Orbital Energies (a.u.)
    -----------------------

    Alpha Occupied:

       1Ag   -92.449827     2Ag    -9.443121     1B3u   -7.133243
       1B1u   -7.133243     1B2u   -7.133243     3Ag    -1.412426
       2B3u   -0.862421     2B1u   -0.862421     2B2u   -0.862421

    Alpha Virtual:

       4Ag    -0.123344     3B3u   -0.083423     3B1u   -0.083423
       3B2u   -0.083423     1B1g   -0.042863     1B2g   -0.042863
       5Ag    -0.042863     1B3g   -0.042863     6Ag    -0.042863
       4B3u    0.068376     4B1u    0.068376     4B2u    0.068376
       7Ag     0.140004     8Ag     0.142346     2B2g    0.142346
       2B1g    0.142346     2B3g    0.142346     9Ag     0.142346
       5B3u    0.212615     5B1u    0.212615     5B2u    0.212615
       1Au     0.212615     6B3u    0.212615     6B2u    0.212615
       6B1u    0.212615     7B3u    0.579127     7B1u    0.579127
       7B2u    0.579127    10Ag     0.619062     3B2g    0.619062
       3B1g    0.619062     3B3g    0.619062    11Ag     0.619062
       4B2g    0.619062     4B1g    0.619062     4B3g    0.619062
      12Ag     0.619062    13Ag     0.699665     5B2g    0.699665
       5B1g    0.699665     5B3g    0.699665    14Ag     0.699665
       8B3u    0.819040     8B1u    0.819040     8B2u    0.819040
       2Au     0.819040     9B3u    0.819040     9B1u    0.819040
       9B2u    0.819040    15Ag     1.024906    10B3u    1.651084
      10B1u    1.651084    10B2u    1.651084     3Au     1.651084
      11B3u    1.651084    11B1u    1.651084    11B2u    1.651084
       4Au     1.651084    12B3u    1.651084    12B1u    1.651084
      12B2u    1.651084    16Ag     1.768529     6B2g    1.768529
       6B1g    1.768529     6B3g    1.768529    17Ag     1.768529
       7B2g    1.768529     7B1g    1.768529     7B3g    1.768529
      18Ag     1.768529    19Ag     2.006996     8B2g    2.006996
       8B1g    2.006996     8B3g    2.006996    20Ag     2.006996
      13B3u    2.055183    13B1u    2.055183    13B2u    2.055183
       5Au     2.055183    14B3u    2.055183    14B1u    2.055183
      14B2u    2.055183    15B3u    2.115274    15B1u    2.115274
      15B2u    2.115274    21Ag     3.678430    22Ag     3.746468
       9B2g    3.746468     9B1g    3.746468     9B3g    3.746468
      23Ag     3.746468    10B2g    3.746468    10B1g    3.746468
      10B3g    3.746468    24Ag     3.746468    11B1g    3.746468
      11B2g    3.746468    25Ag     3.746468    11B3g    3.746468
      26Ag     3.950097    12B2g    3.950097    12B1g    3.950097
      12B3g    3.950097    27Ag     3.950097    13B2g    3.950097
      13B1g    3.950097    13B3g    3.950097    28Ag     3.950097
      16B3u    4.019395    16B1u    4.019395    16B2u    4.019395
       6Au     4.019395    17B3u    4.019395    17B1u    4.019395
      17B2u    4.019395    18B3u    4.019395     7Au     4.019395
      18B1u    4.019395    18B2u    4.019395    29Ag     4.687422
      14B2g    4.687422    14B1g    4.687422    30Ag     4.687422
      14B3g    4.687422    19B3u    4.696515    19B1u    4.696515
      19B2u    4.696515     8Au     4.696515    20B3u    4.696515
      20B1u    4.696515    20B2u    4.696515    21B3u    6.585079
      21B1u    6.585079    21B2u    6.585079    31Ag     8.239070
      15B2g    8.239070    15B1g    8.239070    15B3g    8.239070
      32Ag     8.239070    16B2g    8.239070    16B1g    8.239070
      33Ag     8.239070    16B3g    8.239070    17B2g    8.478738
      34Ag     8.478738    17B1g    8.478738    17B3g    8.478738
      35Ag     8.478738    18B2g    8.478738    18B1g    8.478738
      36Ag     8.478738    18B3g    8.478738    19B1g    8.478738
      19B2g    8.478738    37Ag     8.478738    19B3g    8.478738
      22B3u    8.859072    22B1u    8.859072    22B2u    8.859072
       9Au     8.859072    23B3u    8.859072    23B1u    8.859072
      23B2u    8.859072    24B1u    8.859072    24B2u    8.859072
      24B3u    8.859072    10Au     8.859072    38Ag    10.225336
      20B2g   10.225336    20B1g   10.225336    39Ag    10.225336
      20B3g   10.225336    25B1u   10.330466    25B2u   10.330466
      25B3u   10.330466    11Au    10.330466    26B2u   10.330466
      26B1u   10.330466    26B3u   10.330466    40Ag    11.887098
      27B3u   29.027941    27B2u   29.027941    27B1u   29.027941
      41Ag    30.222954    21B3g   30.222954    21B1g   30.222954
      21B2g   30.222954    42Ag    30.222954    43Ag   242.547696

    Beta Occupied:

       1Ag   -92.416963     2Ag    -9.411444     1B2u   -7.074007
       1B1u   -7.074007     1B3u   -7.074007     3Ag    -1.067628

    Beta Virtual:

       2B2u   -0.306810     2B1u   -0.306810     2B3u   -0.306810
       4Ag    -0.111728     3B2u   -0.072438     3B1u   -0.072438
       3B3u   -0.072438     5Ag    -0.011744     1B2g   -0.011744
       1B1g   -0.011744     1B3g   -0.011744     6Ag    -0.011744
       4B2u    0.096701     4B1u    0.096701     4B3u    0.096701
       7Ag     0.166754     5B3u    0.218240     5B1u    0.218240
       5B2u    0.218240     1Au     0.218240     6B3u    0.218240
       6B1u    0.218240     6B2u    0.218240     8Ag     0.231032
       2B3g    0.231032     2B1g    0.231032     2B2g    0.231032
       9Ag     0.231032    10Ag     0.623890     3B2g    0.623890
       3B1g    0.623890     3B3g    0.623890    11Ag     0.623890
       4B2g    0.623890     4B1g    0.623890     4B3g    0.623890
      12Ag     0.623890     7B2u    0.637313     7B1u    0.637313
       7B3u    0.637313    13Ag     0.778186     5B3g    0.778186
       5B1g    0.778186     5B2g    0.778186    14Ag     0.778186
       8B1u    0.855851     8B2u    0.855851     8B3u    0.855851
       2Au     0.855851     9B2u    0.855851     9B3u    0.855851
       9B1u    0.855851    15Ag     1.076192    10B3u    1.660508
      10B1u    1.660508    10B2u    1.660508     3Au     1.660508
      11B3u    1.660508    11B1u    1.660508    11B2u    1.660508
       4Au     1.660508    12B3u    1.660508    12B1u    1.660508
      12B2u    1.660508     6B3g    1.794548    16Ag     1.794548
      17Ag     1.794548     6B1g    1.794548     6B2g    1.794548
       7B3g    1.794548     7B1g    1.794548    18Ag     1.794548
       7B2g    1.794548    19Ag     2.049458     8B3g    2.049458
       8B1g    2.049458     8B2g    2.049458    20Ag     2.049458
      13B2u    2.119991    13B1u    2.119991    13B3u    2.119991
       5Au     2.119991    14B2u    2.119991    14B1u    2.119991
      14B3u    2.119991    15B2u    2.183210    15B1u    2.183210
      15B3u    2.183210    21Ag     3.729573    22Ag     3.762602
       9B2g    3.762602     9B1g    3.762602     9B3g    3.762602
      23Ag     3.762602    10B1g    3.762602    10B2g    3.762602
      24Ag     3.762602    10B3g    3.762602    11B1g    3.762602
      11B2g    3.762602    25Ag     3.762602    11B3g    3.762602
      12B3g    3.995829    26Ag     3.995829    12B1g    3.995829
      12B2g    3.995829    27Ag     3.995829    13B3g    3.995829
      13B1g    3.995829    13B2g    3.995829    28Ag     3.995829
      16B1u    4.048602    16B2u    4.048602    16B3u    4.048602
       6Au     4.048602    17B2u    4.048602    17B1u    4.048602
      17B3u    4.048602     7Au     4.048602    18B2u    4.048602
      18B1u    4.048602    18B3u    4.048602    29Ag     4.719567
      14B3g    4.719567    14B1g    4.719567    14B2g    4.719567
      30Ag     4.719567    19B1u    4.746772    19B2u    4.746772
      19B3u    4.746772     8Au     4.746772    20B2u    4.746772
      20B1u    4.746772    20B3u    4.746772    21B2u    6.635404
      21B1u    6.635404    21B3u    6.635404    31Ag     8.275637
      15B3g    8.275637    15B1g    8.275637    15B2g    8.275637
      32Ag     8.275637    16B3g    8.275637    16B1g    8.275637
      16B2g    8.275637    33Ag     8.275637    34Ag     8.508136
      17B3g    8.508136    17B1g    8.508136    17B2g    8.508136
      35Ag     8.508136    18B3g    8.508136    18B1g    8.508136
      18B2g    8.508136    36Ag     8.508136    19B3g    8.508136
      19B1g    8.508136    19B2g    8.508136    37Ag     8.508136
      22B1u    8.894995    22B2u    8.894995    22B3u    8.894995
       9Au     8.894995    23B2u    8.894995    23B1u    8.894995
      23B3u    8.894995    10Au     8.894995    24B2u    8.894995
      24B1u    8.894995    24B3u    8.894995    38Ag    10.253985
      20B3g   10.253985    20B1g   10.253985    20B2g   10.253985
      39Ag    10.253985    25B1u   10.349352    25B2u   10.349352
      25B3u   10.349352    11Au    10.349352    26B2u   10.349352
      26B1u   10.349352    26B3u   10.349352    40Ag    11.920243
      27B3u   29.064734    27B2u   29.064734    27B1u   29.064734
      41Ag    30.256928    21B3g   30.256928    21B1g   30.256928
      21B2g   30.256928    42Ag    30.256928    43Ag   242.559749

    Final Occupation by Irrep:
             Ag   B1g   B2g   B3g    Au   B1u   B2u   B3u
    DOCC [     3,    0,    0,    0,    0,    1,    1,    1 ]
    SOCC [     0,    0,    0,    0,    0,    1,    1,    1 ]

  Energy converged.

  @UHF Final Energy:  -397.17390599595359

   => Energetics <=

    Nuclear Repulsion Energy =              0.0000000000000000
    One-Electron Energy =                -542.9373892277533287
    Two-Electron Energy =                 145.7634832317997393
    PCM Polarization Energy =               0.0000000000000000
    Total Energy =                       -397.1739059959535894

    Alert: EFP and PCM quantities not currently incorporated into SCF psivars.
  UHF NO Occupations:
  HONO-2 :    2B2u 1.0000000
  HONO-1 :    2B1u 1.0000000
  HONO-0 :    2B3u 1.0000000
  LUNO+0 :    4 Ag 0.0004296
  LUNO+1 :    3B2u 0.0000075
  LUNO+2 :    3B1u 0.0000075
  LUNO+3 :    3B3u 0.0000075

Properties will be evaluated at   0.000000,   0.000000,   0.000000 Bohr

Properties computed using the SCF density matrix

  Nuclear Dipole Moment: (a.u.)
     X:     0.0000      Y:     0.0000      Z:     0.0000

  Electronic Dipole Moment: (a.u.)
     X:     0.0000      Y:     0.0000      Z:     0.0000

  Dipole Moment: (a.u.)
     X:     0.0000      Y:     0.0000      Z:     0.0000     Total:     0.0000

  Dipole Moment: (Debye)
     X:     0.0000      Y:     0.0000      Z:     0.0000     Total:     0.0000

*** tstop() called on n412-071.vsc4.prov at Mon Nov  2 11:25:06 2020
Module time:
	user time   =     277.33 seconds =       4.62 minutes
	system time =       7.17 seconds =       0.12 minutes
	total time  =         91 seconds =       1.52 minutes
Total time:
	user time   =     277.33 seconds =       4.62 minutes
	system time =       7.17 seconds =       0.12 minutes
	total time  =         91 seconds =       1.52 minutes

*** tstart() called on n412-071.vsc4.prov
*** at Mon Nov  2 11:25:06 2020

	Wfn Parameters:
	--------------------
	Wavefunction         = CCSD
	Number of irreps     = 8
	Number of MOs        = 198
	Number of active MOs = 193
	AO-Basis             = NONE
	Semicanonical        = false
	Reference            = UHF
	Print Level          = 1

	IRREP	# MOs	# FZDC	# DOCC	# SOCC	# VIRT	# FZVR
	-----	-----	------	------	------	------	------
	 Ag	   43	    2	    1	    0	    40	    0
	 B1g	   21	    0	    0	    0	    21	    0
	 B2g	   21	    0	    0	    0	    21	    0
	 B3g	   21	    0	    0	    0	    21	    0
	 Au	   11	    0	    0	    0	    11	    0
	 B1u	   27	    1	    0	    1	    25	    0
	 B2u	   27	    1	    0	    1	    25	    0
	 B3u	   27	    1	    0	    1	    25	    0
	Transforming integrals...
	IWL integrals will be deleted.
	(OO|OO)...
	Presorting SO-basis two-electron integrals.
	Sorting File: SO Ints (nn|nn) nbuckets = 1
	Transforming the one-electron integrals and constructing Fock matrices
	Starting AA/AB first half-transformation.
	Sorting AA/AB half-transformed integrals.
	Starting BB first half-transformation.
	Sorting BB half-transformed integrals.
	First half integral transformation complete.
	Starting AA second half-transformation.
	Starting AB second half-transformation.
	Starting BB second half-transformation.
	Two-electron integral transformation complete.
	(OO|OV)...
	Starting AA second half-transformation.
	Starting AB second half-transformation.
	Starting BB second half-transformation.
	Two-electron integral transformation complete.
	(OO|VV)...
	Starting AA second half-transformation.
	Starting AB second half-transformation.
	Starting BB second half-transformation.
	Two-electron integral transformation complete.
	(OV|OO)...
	Starting AA/AB first half-transformation.
	Sorting AA/AB half-transformed integrals.
	Starting BB first half-transformation.
	Sorting BB half-transformed integrals.
	First half integral transformation complete.
	Starting AA second half-transformation.
	Starting AB second half-transformation.
	Starting BB second half-transformation.
	Two-electron integral transformation complete.
	(OV|OV)...
	Starting AA second half-transformation.
	Starting AB second half-transformation.
	Starting BB second half-transformation.
	Two-electron integral transformation complete.
	(OV|VV)...
	Starting AA second half-transformation.
	Starting AB second half-transformation.
	Starting BB second half-transformation.
	Two-electron integral transformation complete.
	(VV|OO)...
	Starting AA/AB first half-transformation.
	Sorting AA/AB half-transformed integrals.
	Starting BB first half-transformation.
	Sorting BB half-transformed integrals.
	First half integral transformation complete.
	Starting AA second half-transformation.
	Starting AB second half-transformation.
	Starting BB second half-transformation.
	Two-electron integral transformation complete.
	(VV|OV)...
	Starting AA second half-transformation.
	Starting AB second half-transformation.
	Starting BB second half-transformation.
	Two-electron integral transformation complete.
	(VV|VV)...
	Starting AA second half-transformation.
	Starting AB second half-transformation.
	Starting BB second half-transformation.
	Two-electron integral transformation complete.
	Frozen core energy     =   -387.55376986662640

	Size of irrep 0 of <AB|CD> integrals:      5.593 (MW) /     44.746 (MB)
	Size of irrep 1 of <AB|CD> integrals:      4.757 (MW) /     38.054 (MB)
	Size of irrep 2 of <AB|CD> integrals:      4.757 (MW) /     38.054 (MB)
	Size of irrep 3 of <AB|CD> integrals:      4.757 (MW) /     38.054 (MB)
	Size of irrep 4 of <AB|CD> integrals:      4.060 (MW) /     32.482 (MB)
	Size of irrep 5 of <AB|CD> integrals:      5.203 (MW) /     41.624 (MB)
	Size of irrep 6 of <AB|CD> integrals:      5.203 (MW) /     41.624 (MB)
	Size of irrep 7 of <AB|CD> integrals:      5.203 (MW) /     41.624 (MB)
	Total:                                    39.533 (MW) /    316.261 (MB)

	Size of irrep 0 of <ab|cd> integrals:      5.954 (MW) /     47.629 (MB)
	Size of irrep 1 of <ab|cd> integrals:      5.031 (MW) /     40.248 (MB)
	Size of irrep 2 of <ab|cd> integrals:      5.031 (MW) /     40.248 (MB)
	Size of irrep 3 of <ab|cd> integrals:      5.031 (MW) /     40.248 (MB)
	Size of irrep 4 of <ab|cd> integrals:      4.318 (MW) /     34.545 (MB)
	Size of irrep 5 of <ab|cd> integrals:      5.584 (MW) /     44.670 (MB)
	Size of irrep 6 of <ab|cd> integrals:      5.584 (MW) /     44.670 (MB)
	Size of irrep 7 of <ab|cd> integrals:      5.584 (MW) /     44.670 (MB)
	Total:                                    42.116 (MW) /    336.929 (MB)

	Size of irrep 0 of <Ab|Cd> integrals:     24.940 (MW) /    199.520 (MB)
	Size of irrep 1 of <Ab|Cd> integrals:     19.563 (MW) /    156.503 (MB)
	Size of irrep 2 of <Ab|Cd> integrals:     19.563 (MW) /    156.503 (MB)
	Size of irrep 3 of <Ab|Cd> integrals:     19.563 (MW) /    156.503 (MB)
	Size of irrep 4 of <Ab|Cd> integrals:     16.753 (MW) /    134.021 (MB)
	Size of irrep 5 of <Ab|Cd> integrals:     21.567 (MW) /    172.534 (MB)
	Size of irrep 6 of <Ab|Cd> integrals:     21.567 (MW) /    172.534 (MB)
	Size of irrep 7 of <Ab|Cd> integrals:     21.567 (MW) /    172.534 (MB)
	Total:                                   165.082 (MW) /   1320.653 (MB)

	Size of irrep 0 of <IA|BC> integrals:      0.566 (MW) /      4.525 (MB)
	Size of irrep 1 of <IA|BC> integrals:      0.358 (MW) /      2.861 (MB)
	Size of irrep 2 of <IA|BC> integrals:      0.358 (MW) /      2.861 (MB)
	Size of irrep 3 of <IA|BC> integrals:      0.358 (MW) /      2.861 (MB)
	Size of irrep 4 of <IA|BC> integrals:      0.298 (MW) /      2.386 (MB)
	Size of irrep 5 of <IA|BC> integrals:      0.488 (MW) /      3.905 (MB)
	Size of irrep 6 of <IA|BC> integrals:      0.488 (MW) /      3.905 (MB)
	Size of irrep 7 of <IA|BC> integrals:      0.488 (MW) /      3.905 (MB)
	Total:                                     3.401 (MW) /     27.211 (MB)

	Size of irrep 0 of <ia|bc> integrals:      0.203 (MW) /      1.623 (MB)
	Size of irrep 1 of <ia|bc> integrals:      0.094 (MW) /      0.754 (MB)
	Size of irrep 2 of <ia|bc> integrals:      0.094 (MW) /      0.754 (MB)
	Size of irrep 3 of <ia|bc> integrals:      0.094 (MW) /      0.754 (MB)
	Size of irrep 4 of <ia|bc> integrals:      0.046 (MW) /      0.366 (MB)
	Size of irrep 5 of <ia|bc> integrals:      0.123 (MW) /      0.983 (MB)
	Size of irrep 6 of <ia|bc> integrals:      0.123 (MW) /      0.983 (MB)
	Size of irrep 7 of <ia|bc> integrals:      0.123 (MW) /      0.983 (MB)
	Total:                                     0.900 (MW) /      7.199 (MB)

	Size of irrep 0 of <Ia|Bc> integrals:      0.589 (MW) /      4.714 (MB)
	Size of irrep 1 of <Ia|Bc> integrals:      0.372 (MW) /      2.972 (MB)
	Size of irrep 2 of <Ia|Bc> integrals:      0.372 (MW) /      2.972 (MB)
	Size of irrep 3 of <Ia|Bc> integrals:      0.372 (MW) /      2.972 (MB)
	Size of irrep 4 of <Ia|Bc> integrals:      0.303 (MW) /      2.423 (MB)
	Size of irrep 5 of <Ia|Bc> integrals:      0.502 (MW) /      4.012 (MB)
	Size of irrep 6 of <Ia|Bc> integrals:      0.502 (MW) /      4.012 (MB)
	Size of irrep 7 of <Ia|Bc> integrals:      0.502 (MW) /      4.012 (MB)
	Total:                                     3.511 (MW) /     28.091 (MB)

	Size of irrep 0 of <iA|bC> integrals:      0.200 (MW) /      1.598 (MB)
	Size of irrep 1 of <iA|bC> integrals:      0.093 (MW) /      0.743 (MB)
	Size of irrep 2 of <iA|bC> integrals:      0.093 (MW) /      0.743 (MB)
	Size of irrep 3 of <iA|bC> integrals:      0.093 (MW) /      0.743 (MB)
	Size of irrep 4 of <iA|bC> integrals:      0.045 (MW) /      0.360 (MB)
	Size of irrep 5 of <iA|bC> integrals:      0.116 (MW) /      0.929 (MB)
	Size of irrep 6 of <iA|bC> integrals:      0.116 (MW) /      0.929 (MB)
	Size of irrep 7 of <iA|bC> integrals:      0.116 (MW) /      0.929 (MB)
	Total:                                     0.872 (MW) /      6.974 (MB)

	Size of irrep 0 of tIjAb amplitudes:       0.005 (MW) /      0.040 (MB)
	Size of irrep 1 of tIjAb amplitudes:       0.000 (MW) /      0.000 (MB)
	Size of irrep 2 of tIjAb amplitudes:       0.000 (MW) /      0.000 (MB)
	Size of irrep 3 of tIjAb amplitudes:       0.000 (MW) /      0.000 (MB)
	Size of irrep 4 of tIjAb amplitudes:       0.000 (MW) /      0.000 (MB)
	Size of irrep 5 of tIjAb amplitudes:       0.005 (MW) /      0.037 (MB)
	Size of irrep 6 of tIjAb amplitudes:       0.005 (MW) /      0.037 (MB)
	Size of irrep 7 of tIjAb amplitudes:       0.005 (MW) /      0.037 (MB)
	Total:                                     0.019 (MW) /      0.151 (MB)

	Nuclear Rep. energy          =      0.00000000000000
	SCF energy                   =   -397.17390599595359
	One-electron energy          =    -14.17295404234599
	Two-electron (AA) energy     =      2.48771778349666
	Two-electron (BB) energy     =      0.00000000000000
	Two-electron (AB) energy     =      2.06510012952180
	Two-electron energy          =      4.55281791301846
	Reference energy             =   -397.17390599595393

*** tstop() called on n412-071.vsc4.prov at Mon Nov  2 11:26:22 2020
Module time:
	user time   =      20.71 seconds =       0.35 minutes
	system time =      11.69 seconds =       0.19 minutes
	total time  =         76 seconds =       1.27 minutes
Total time:
	user time   =     298.04 seconds =       4.97 minutes
	system time =      18.86 seconds =       0.31 minutes
	total time  =        167 seconds =       2.78 minutes

*** tstart() called on n412-071.vsc4.prov
*** at Mon Nov  2 11:26:22 2020

            **************************
            *                        *
            *        CCENERGY        *

      * MP2 total energy                      = -397.275001054385029
      * CCSD total energy                     = -397.290507967306326
*** Psi4 exiting successfully. Buy a developer a beer!
