                               Psi4 1.2a1.dev938

  ==> Input File <==

--------------------------------------------------------------------------
# Any line starting with the # character is a comment line
memory 250000 mb
molecule molecule{
1 4
S          0.0000000000        0.0000000000        0.0000000000
}

set {
  reference uhf
  basis aug-cc-pv(t+d)z
  scf_type OUT_OF_CORE
  freeze_core true
}

energy('ccsd')
--------------------------------------------------------------------------

    Molecular point group: d2h
    Geometry (in Angstrom), charge = 1, multiplicity = 4:

       Center              X                  Y                   Z               Mass
    ------------   -----------------  -----------------  -----------------  -----------------
           S          0.000000000000     0.000000000000     0.000000000000    31.972070999000

  Charge       = 1
  Multiplicity = 4
  Basis Set: AUG-CC-PV(T+D)Z
    Blend: AUG-CC-PV(T+D)Z

    Orbital Energies (a.u.)
    -----------------------

    Alpha Occupied:

       1Ag   -92.449637     2Ag    -9.443330     1B2u   -7.132031
       1B1u   -7.132031     1B3u   -7.132031     3Ag    -1.412391
       2B1u   -0.862239     2B2u   -0.862239     2B3u   -0.862239

    Alpha Virtual:

       4Ag    -0.112353     3B2u   -0.075476     3B1u   -0.075476
       3B3u   -0.075476     5Ag    -0.016058     1B3g   -0.016058
       1B1g   -0.016058     6Ag    -0.016058     1B2g   -0.016058
       4B3u    0.247853     4B2u    0.247853     4B1u    0.247853
       7Ag     0.339248     2B3g    0.339248     2B2g    0.339248
       2B1g    0.339248     8Ag     0.339248     9Ag     0.421714
       5B3u    0.543152     5B1u    0.543152     6B3u    0.543152
       5B2u    0.543152     6B2u    0.543152     6B1u    0.543152
       1Au     0.543152     3B1g    1.509353    10Ag     1.509353
      11Ag     1.509353     3B3g    1.509353     3B2g    1.509353
       7B3u    1.919215     7B1u    1.919215     7B2u    1.919215
       8B3u    1.927457     2Au     1.927457     8B2u    1.927457
       8B1u    1.927457     9B3u    1.927457     9B1u    1.927457
       9B2u    1.927457    12Ag     3.696302     4B2g    6.865025
       4B1g    6.865025     4B3g    6.865025    13Ag     6.865025
      14Ag     6.865025

    Beta Occupied:

       1Ag   -92.419324     2Ag    -9.411499     1B2u   -7.074924
       1B1u   -7.074924     1B3u   -7.074924     3Ag    -1.067998

    Beta Virtual:

       2B1u   -0.307111     2B2u   -0.307111     2B3u   -0.307111
       4Ag    -0.096677     3B2u   -0.059645     3B1u   -0.059645
       3B3u   -0.059645     1B1g    0.044057     1B3g    0.044057
       5Ag     0.044057     1B2g    0.044057     6Ag     0.044057
       4B2u    0.310447     4B3u    0.310447     4B1u    0.310447
       7Ag     0.452466     2B2g    0.452466     2B3g    0.452466
       2B1g    0.452466     8Ag     0.452466     9Ag     0.476922
       5B3u    0.573584     5B1u    0.573584     6B3u    0.573584
       5B2u    0.573584     6B2u    0.573584     1Au     0.573584
       6B1u    0.573584    10Ag     1.570924     3B1g    1.570924
      11Ag     1.570924     3B3g    1.570924     3B2g    1.570924
       7B3u    2.005898     7B1u    2.005898     7B2u    2.005898
       8B3u    2.009641     2Au     2.009641     8B1u    2.009641
       9B1u    2.009641     8B2u    2.009641     9B3u    2.009641
       9B2u    2.009641    12Ag     3.753055     4B2g    6.890292
       4B1g    6.890292     4B3g    6.890292    13Ag     6.890292
      14Ag     6.890292

    Final Occupation by Irrep:
             Ag   B1g   B2g   B3g    Au   B1u   B2u   B3u
    DOCC [     3,    0,    0,    0,    0,    1,    1,    1 ]
    SOCC [     0,    0,    0,    0,    0,    1,    1,    1 ]

  Energy converged.

  @UHF Final Energy:  -397.17029808739437

   => Energetics <=

    Nuclear Repulsion Energy =              0.0000000000000000
    One-Electron Energy =                -542.9288353633315864
    Two-Electron Energy =                 145.7585372759372149
    Total Energy =                       -397.1702980873943716

  UHF NO Occupations:
  HONO-2 :    2B1u 1.0000000
  HONO-1 :    2B2u 1.0000000
  HONO-0 :    2B3u 1.0000000
  LUNO+0 :    4 Ag 0.0003985
  LUNO+1 :    3B1u 0.0000038
  LUNO+2 :    3B3u 0.0000038
  LUNO+3 :    3B2u 0.0000038

Properties will be evaluated at   0.000000,   0.000000,   0.000000 Bohr

Properties computed using the SCF density matrix

  Nuclear Dipole Moment: (a.u.)
     X:     0.0000      Y:     0.0000      Z:     0.0000

  Electronic Dipole Moment: (a.u.)
     X:     0.0000      Y:     0.0000      Z:     0.0000

  Dipole Moment: (a.u.)
     X:     0.0000      Y:     0.0000      Z:     0.0000     Total:     0.0000

  Dipole Moment: (Debye)
     X:     0.0000      Y:     0.0000      Z:     0.0000     Total:     0.0000

*** tstop() called on cqc05 at Thu Aug 20 20:10:55 2020
Module time:
	user time   =       0.55 seconds =       0.01 minutes
	system time =       0.01 seconds =       0.00 minutes
	total time  =          0 seconds =       0.00 minutes
Total time:
	user time   =       0.55 seconds =       0.01 minutes
	system time =       0.01 seconds =       0.00 minutes
	total time  =          0 seconds =       0.00 minutes

*** tstart() called on cqc05
*** at Thu Aug 20 20:10:55 2020

	Wfn Parameters:
	--------------------
	Wavefunction         = CCSD
	Number of irreps     = 8
	Number of MOs        = 55
	Number of active MOs = 50
	AO-Basis             = NONE
	Semicanonical        = false
	Reference            = UHF
	Print Level          = 1

	IRREP	# MOs	# FZDC	# DOCC	# SOCC	# VIRT	# FZVR
	-----	-----	------	------	------	------	------
	 Ag	   14	    2	    1	    0	    11	    0
	 B1g	   4	    0	    0	    0	    4	    0
	 B2g	   4	    0	    0	    0	    4	    0
	 B3g	   4	    0	    0	    0	    4	    0
	 Au	   2	    0	    0	    0	    2	    0
	 B1u	   9	    1	    0	    1	    7	    0
	 B2u	   9	    1	    0	    1	    7	    0
	 B3u	   9	    1	    0	    1	    7	    0
	Transforming integrals...
	IWL integrals will be deleted.
	(OO|OO)...
	Presorting SO-basis two-electron integrals.
	Sorting File: SO Ints (nn|nn) nbuckets = 1
	Transforming the one-electron integrals and constructing Fock matrices
	Starting AA/AB first half-transformation.
	Sorting AA/AB half-transformed integrals.
	Starting BB first half-transformation.
	Sorting BB half-transformed integrals.
	First half integral transformation complete.
	Starting AA second half-transformation.
	Starting AB second half-transformation.
	Starting BB second half-transformation.
	Two-electron integral transformation complete.
	(OO|OV)...
	Starting AA second half-transformation.
	Starting AB second half-transformation.
	Starting BB second half-transformation.
	Two-electron integral transformation complete.
	(OO|VV)...
	Starting AA second half-transformation.
	Starting AB second half-transformation.
	Starting BB second half-transformation.
	Two-electron integral transformation complete.
	(OV|OO)...
	Starting AA/AB first half-transformation.
	Sorting AA/AB half-transformed integrals.
	Starting BB first half-transformation.
	Sorting BB half-transformed integrals.
	First half integral transformation complete.
	Starting AA second half-transformation.
	Starting AB second half-transformation.
	Starting BB second half-transformation.
	Two-electron integral transformation complete.
	(OV|OV)...
	Starting AA second half-transformation.
	Starting AB second half-transformation.
	Starting BB second half-transformation.
	Two-electron integral transformation complete.
	(OV|VV)...
	Starting AA second half-transformation.
	Starting AB second half-transformation.
	Starting BB second half-transformation.
	Two-electron integral transformation complete.
	(VV|OO)...
	Starting AA/AB first half-transformation.
	Sorting AA/AB half-transformed integrals.
	Starting BB first half-transformation.
	Sorting BB half-transformed integrals.
	First half integral transformation complete.
	Starting AA second half-transformation.
	Starting AB second half-transformation.
	Starting BB second half-transformation.
	Two-electron integral transformation complete.
	(VV|OV)...
	Starting AA second half-transformation.
	Starting AB second half-transformation.
	Starting BB second half-transformation.
	Two-electron integral transformation complete.
	(VV|VV)...
	Starting AA second half-transformation.
	Starting AB second half-transformation.
	Starting BB second half-transformation.
	Two-electron integral transformation complete.
	Frozen core energy     =   -387.55118870302385

	Size of irrep 0 of <AB|CD> integrals:      0.019 (MW) /      0.150 (MB)
	Size of irrep 1 of <AB|CD> integrals:      0.015 (MW) /      0.121 (MB)
	Size of irrep 2 of <AB|CD> integrals:      0.015 (MW) /      0.121 (MB)
	Size of irrep 3 of <AB|CD> integrals:      0.015 (MW) /      0.121 (MB)
	Size of irrep 4 of <AB|CD> integrals:      0.011 (MW) /      0.090 (MB)
	Size of irrep 5 of <AB|CD> integrals:      0.020 (MW) /      0.159 (MB)
	Size of irrep 6 of <AB|CD> integrals:      0.020 (MW) /      0.159 (MB)
	Size of irrep 7 of <AB|CD> integrals:      0.020 (MW) /      0.159 (MB)
	Total:                                     0.135 (MW) /      1.080 (MB)

	Size of irrep 0 of <ab|cd> integrals:      0.025 (MW) /      0.200 (MB)
	Size of irrep 1 of <ab|cd> integrals:      0.020 (MW) /      0.157 (MB)
	Size of irrep 2 of <ab|cd> integrals:      0.020 (MW) /      0.157 (MB)
	Size of irrep 3 of <ab|cd> integrals:      0.020 (MW) /      0.157 (MB)
	Size of irrep 4 of <ab|cd> integrals:      0.014 (MW) /      0.111 (MB)
	Size of irrep 5 of <ab|cd> integrals:      0.026 (MW) /      0.205 (MB)
	Size of irrep 6 of <ab|cd> integrals:      0.026 (MW) /      0.205 (MB)
	Size of irrep 7 of <ab|cd> integrals:      0.026 (MW) /      0.205 (MB)
	Total:                                     0.174 (MW) /      1.396 (MB)

	Size of irrep 0 of <Ab|Cd> integrals:      0.116 (MW) /      0.930 (MB)
	Size of irrep 1 of <Ab|Cd> integrals:      0.069 (MW) /      0.549 (MB)
	Size of irrep 2 of <Ab|Cd> integrals:      0.069 (MW) /      0.549 (MB)
	Size of irrep 3 of <Ab|Cd> integrals:      0.069 (MW) /      0.549 (MB)
	Size of irrep 4 of <Ab|Cd> integrals:      0.050 (MW) /      0.401 (MB)
	Size of irrep 5 of <Ab|Cd> integrals:      0.091 (MW) /      0.725 (MB)
	Size of irrep 6 of <Ab|Cd> integrals:      0.091 (MW) /      0.725 (MB)
	Size of irrep 7 of <Ab|Cd> integrals:      0.091 (MW) /      0.725 (MB)
	Total:                                     0.644 (MW) /      5.154 (MB)

	Size of irrep 0 of <IA|BC> integrals:      0.010 (MW) /      0.082 (MB)
	Size of irrep 1 of <IA|BC> integrals:      0.005 (MW) /      0.039 (MB)
	Size of irrep 2 of <IA|BC> integrals:      0.005 (MW) /      0.039 (MB)
	Size of irrep 3 of <IA|BC> integrals:      0.005 (MW) /      0.039 (MB)
	Size of irrep 4 of <IA|BC> integrals:      0.003 (MW) /      0.024 (MB)
	Size of irrep 5 of <IA|BC> integrals:      0.007 (MW) /      0.059 (MB)
	Size of irrep 6 of <IA|BC> integrals:      0.007 (MW) /      0.059 (MB)
	Size of irrep 7 of <IA|BC> integrals:      0.007 (MW) /      0.059 (MB)
	Total:                                     0.050 (MW) /      0.400 (MB)

	Size of irrep 0 of <ia|bc> integrals:      0.004 (MW) /      0.032 (MB)
	Size of irrep 1 of <ia|bc> integrals:      0.001 (MW) /      0.009 (MB)
	Size of irrep 2 of <ia|bc> integrals:      0.001 (MW) /      0.009 (MB)
	Size of irrep 3 of <ia|bc> integrals:      0.001 (MW) /      0.009 (MB)
	Size of irrep 4 of <ia|bc> integrals:      0.000 (MW) /      0.004 (MB)
	Size of irrep 5 of <ia|bc> integrals:      0.003 (MW) /      0.020 (MB)
	Size of irrep 6 of <ia|bc> integrals:      0.003 (MW) /      0.020 (MB)
	Size of irrep 7 of <ia|bc> integrals:      0.003 (MW) /      0.020 (MB)
	Total:                                     0.016 (MW) /      0.124 (MB)

	Size of irrep 0 of <Ia|Bc> integrals:      0.012 (MW) /      0.095 (MB)
	Size of irrep 1 of <Ia|Bc> integrals:      0.006 (MW) /      0.046 (MB)
	Size of irrep 2 of <Ia|Bc> integrals:      0.006 (MW) /      0.046 (MB)
	Size of irrep 3 of <Ia|Bc> integrals:      0.006 (MW) /      0.046 (MB)
	Size of irrep 4 of <Ia|Bc> integrals:      0.003 (MW) /      0.025 (MB)
	Size of irrep 5 of <Ia|Bc> integrals:      0.008 (MW) /      0.065 (MB)
	Size of irrep 6 of <Ia|Bc> integrals:      0.008 (MW) /      0.065 (MB)
	Size of irrep 7 of <Ia|Bc> integrals:      0.008 (MW) /      0.065 (MB)
	Total:                                     0.057 (MW) /      0.454 (MB)

	Size of irrep 0 of <iA|bC> integrals:      0.004 (MW) /      0.030 (MB)
	Size of irrep 1 of <iA|bC> integrals:      0.001 (MW) /      0.008 (MB)
	Size of irrep 2 of <iA|bC> integrals:      0.001 (MW) /      0.008 (MB)
	Size of irrep 3 of <iA|bC> integrals:      0.001 (MW) /      0.008 (MB)
	Size of irrep 4 of <iA|bC> integrals:      0.000 (MW) /      0.004 (MB)
	Size of irrep 5 of <iA|bC> integrals:      0.002 (MW) /      0.017 (MB)
	Size of irrep 6 of <iA|bC> integrals:      0.002 (MW) /      0.017 (MB)
	Size of irrep 7 of <iA|bC> integrals:      0.002 (MW) /      0.017 (MB)
	Total:                                     0.014 (MW) /      0.109 (MB)

	Size of irrep 0 of tIjAb amplitudes:       0.000 (MW) /      0.003 (MB)
	Size of irrep 1 of tIjAb amplitudes:       0.000 (MW) /      0.000 (MB)
	Size of irrep 2 of tIjAb amplitudes:       0.000 (MW) /      0.000 (MB)
	Size of irrep 3 of tIjAb amplitudes:       0.000 (MW) /      0.000 (MB)
	Size of irrep 4 of tIjAb amplitudes:       0.000 (MW) /      0.000 (MB)
	Size of irrep 5 of tIjAb amplitudes:       0.000 (MW) /      0.002 (MB)
	Size of irrep 6 of tIjAb amplitudes:       0.000 (MW) /      0.002 (MB)
	Size of irrep 7 of tIjAb amplitudes:       0.000 (MW) /      0.002 (MB)
	Total:                                     0.001 (MW) /      0.010 (MB)

	Nuclear Rep. energy          =      0.00000000000000
	SCF energy                   =   -397.17029808739437
	One-electron energy          =    -14.17111325083841
	Two-electron (AA) energy     =      2.48722474735235
	Two-electron (BB) energy     =      0.00000000000000
	Two-electron (AB) energy     =      2.06477911911613
	Two-electron energy          =      4.55200386646848
	Reference energy             =   -397.17029808739380

*** tstop() called on cqc05 at Thu Aug 20 20:10:55 2020
Module time:
	user time   =       0.14 seconds =       0.00 minutes
	system time =       0.08 seconds =       0.00 minutes
	total time  =          0 seconds =       0.00 minutes
Total time:
	user time   =       0.69 seconds =       0.01 minutes
	system time =       0.09 seconds =       0.00 minutes
	total time  =          0 seconds =       0.00 minutes

*** tstart() called on cqc05
*** at Thu Aug 20 20:10:55 2020

            **************************
            *                        *
            *        CCENERGY        *
            *                        *
            **************************

    Nuclear Rep. energy (wfn)     =    0.000000000000000
    SCF energy          (wfn)     = -397.170298087394372
    Reference energy    (file100) = -397.170298087393803

    Input parameters:
    -----------------
    Wave function   =     CCSD
    Reference wfn   =     UHF
    Brueckner       =     No
    Memory (Mbytes) =     250000.0
    Maxiter         =     50
    R_Convergence   =     1.0e-07
    E_Convergence   =     1.0e-06
    Restart         =     Yes
    DIIS            =     Yes
    AO Basis        =     NONE
    ABCD            =     NEW
    Cache Level     =     2
    Cache Type      =     LRU
    Print Level     =     1
    Num. of threads =     4
    # Amps to Print =     10
    Print MP2 Amps? =     No
    Analyze T2 Amps =     No
    Print Pair Ener =     No
    Local CC        =     No
    SCS-MP2         =     False
    SCSN-MP2        =     False
    SCS-CCSD        =     False

MP2 correlation energy -0.0907322173310214
                Solving CC Amplitude Equations
                ------------------------------
  Iter             Energy              RMS        T1Diag      D1Diag    New D1Diag    D2Diag
  ----     ---------------------    ---------   ----------  ----------  ----------   --------
     0        -0.090732217331021    0.000e+00    0.000000    0.000000    0.000000    0.000000
     1        -0.105861415653989    4.062e-02    0.003256    0.000000    0.000000    0.000000
     2        -0.110040218869363    1.176e-02    0.004749    0.000000    0.000000    0.000000
     3        -0.110226758352868    2.088e-03    0.004979    0.000000    0.000000    0.000000
     4        -0.110223432888561    3.283e-04    0.004980    0.000000    0.000000    0.000000
     5        -0.110219268287425    3.380e-05    0.004977    0.000000    0.000000    0.000000
     6        -0.110220338073642    7.585e-06    0.004977    0.000000    0.000000    0.000000
     7        -0.110220103359341    1.791e-06    0.004977    0.000000    0.000000    0.000000
     8        -0.110220126511945    3.621e-07    0.004977    0.000000    0.000000    0.000000
     9        -0.110220129516283    7.334e-08    0.004977    0.000000    0.000000    0.000000
     9        -0.110220129516283    7.334e-08    0.004977    0.000000    0.000000    0.000000

    Iterations converged.

    CCSD corr. energy   =   -0.110220129516283
    PPL corr. energy    =    0.032648633724131
    OS PPL corr. energy =    0.026714367433530
    SS PPL corr. energy =    0.005934266290601
    Largest TIA Amplitudes:
              0   5         0.0029117921
              1  26         0.0026058850
              2  33         0.0026058850
              3  40         0.0026058850
              0   0        -0.0017425383
              1  25        -0.0014429515
              2  32        -0.0014429515
              3  39        -0.0014429515
              1  29        -0.0012761388
              2  36        -0.0012761388

    Largest Tia Amplitudes:
              0   0         0.0072864543
              0   5        -0.0051392073
              0   8        -0.0006526736

    Largest TIJAB Amplitudes:
      3   2  11   1         0.0331170947
      3   1  15   2        -0.0308634500
      3   2  11   4         0.0280845422
      3   2  12   1         0.0278435738
      3   2  12   4         0.0274096497
      2   1  19   2        -0.0264970407
      3   1  16   2        -0.0259487964
      2   1  19   3        -0.0243275600
      3   1  15   3        -0.0243162940
      2   1  20   3        -0.0237429506

    Largest TIjAb Amplitudes:
      1   0   2  25        -0.0620231527
      1   0   3  25        -0.0578163257
      2   0   1  33         0.0578024277
      1   0  15  41        -0.0541784875
      1   0  19  33        -0.0541784875
      2   0  11  41        -0.0541784875
      2   0  19  25        -0.0541784875
      3   0  11  33        -0.0541784875

      * MP2 total energy                      = -397.261030304724841
      * CCSD total energy                     = -397.280518216910082
*** Psi4 exiting successfully. Buy a developer a beer!
