                               Psi4 1.2a1.dev938

  ==> Input File <==

--------------------------------------------------------------------------
# Any line starting with the # character is a comment line
memory 250000 mb
molecule molecule{
1 4
S          0.0000000000        0.0000000000        0.0000000000
}

set {
  reference uhf
  basis aug-cc-pv(q+d)z
  scf_type OUT_OF_CORE
  freeze_core true
}

energy('ccsd')
--------------------------------------------------------------------------

    Molecular point group: d2h
    Geometry (in Angstrom), charge = 1, multiplicity = 4:

       Center              X                  Y                   Z               Mass
    ------------   -----------------  -----------------  -----------------  -----------------
           S          0.000000000000     0.000000000000     0.000000000000    31.972070999000

  Charge       = 1
  Multiplicity = 4
  Basis Set: AUG-CC-PV(Q+D)Z
    Blend: AUG-CC-PV(Q+D)Z

    Orbital Energies (a.u.)
    -----------------------

    Alpha Occupied:

       1Ag   -92.449367     2Ag    -9.443692     1B3u   -7.132820
       1B1u   -7.132820     1B2u   -7.132820     3Ag    -1.412413
       2B3u   -0.862366     2B1u   -0.862366     2B2u   -0.862366

    Alpha Virtual:

       4Ag    -0.119415     3B3u   -0.079218     3B1u   -0.079218
       3B2u   -0.079218     5Ag    -0.035172     1B3g   -0.035172
       1B1g   -0.035172     6Ag    -0.035172     1B2g   -0.035172
       4B3u    0.156620     4B1u    0.156620     4B2u    0.156620
       7Ag     0.194491     2B2g    0.194491     2B1g    0.194491
       8Ag     0.194491     2B3g    0.194491     9Ag     0.238600
       5B3u    0.308392     5B1u    0.308392     5B2u    0.308392
       6B3u    0.308392     1Au     0.308392     6B2u    0.308392
       6B1u    0.308392    10Ag     0.933319     3B2g    0.933319
       3B1g    0.933319    11Ag     0.933319     3B3g    0.933319
      12Ag     1.156321     4B2g    1.156321     4B1g    1.156321
       4B3g    1.156321    13Ag     1.156321     5B1g    1.156321
       5B2g    1.156321    14Ag     1.156321     5B3g    1.156321
       7B2u    1.162516     7B1u    1.162516     7B3u    1.162516
       8B2u    1.162516     8B1u    1.162516     8B3u    1.162516
       2Au     1.162516     9B3u    1.168951     9B1u    1.168951
       9B2u    1.168951    15Ag     1.745955    16Ag     2.659574
       6B3g    2.659574     6B1g    2.659574     6B2g    2.659574
      17Ag     2.659574    10B3u    3.256652    10B1u    3.256652
      10B2u    3.256652    11B3u    3.256652     3Au     3.256652
      11B2u    3.256652    11B1u    3.256652    18Ag     3.430829
       7B3g    3.430829     7B1g    3.430829     7B2g    3.430829
      19Ag     3.430829     8B3g    3.430829     8B1g    3.430829
       8B2g    3.430829    20Ag     3.430829    12B3u    5.193032
      12B1u    5.193032    12B2u    5.193032    21Ag     8.829154
       9B3g    8.829154     9B1g    8.829154     9B2g    8.829154
      22Ag     8.829154    23Ag    16.729422

    Beta Occupied:

       1Ag   -92.418879     2Ag    -9.411409     1B2u   -7.074956
       1B1u   -7.074956     1B3u   -7.074956     3Ag    -1.067861

    Beta Virtual:

       2B3u   -0.306981     2B1u   -0.306981     2B2u   -0.306981
       4Ag    -0.106386     3B3u   -0.065700     3B1u   -0.065700
       3B2u   -0.065700     5Ag     0.003887     1B2g    0.003887
       1B1g    0.003887     1B3g    0.003887     6Ag     0.003887
       4B3u    0.202438     4B1u    0.202438     4B2u    0.202438
       7Ag     0.277096     2B2g    0.293143     8Ag     0.293143
       2B1g    0.293143     2B3g    0.293143     9Ag     0.293143
       5B3u    0.319724     5B1u    0.319724     5B2u    0.319724
       1Au     0.319724     6B3u    0.319724     6B1u    0.319724
       6B2u    0.319724     3B3g    1.010823    10Ag     1.010823
       3B1g    1.010823     3B2g    1.010823    11Ag     1.010823
      12Ag     1.175615     4B2g    1.175615     4B1g    1.175615
       4B3g    1.175615    13Ag     1.175615     5B2g    1.175615
       5B1g    1.175615     5B3g    1.175615    14Ag     1.175615
       7B1u    1.222412     7B3u    1.222412     7B2u    1.222412
       2Au     1.222412     8B3u    1.222412     8B1u    1.222412
       8B2u    1.222412     9B1u    1.249510     9B2u    1.249510
       9B3u    1.249510    15Ag     1.809715     6B3g    2.698725
      16Ag     2.698725     6B1g    2.698725     6B2g    2.698725
      17Ag     2.698725    10B1u    3.327007    10B2u    3.327007
       3Au     3.327007    10B3u    3.327007    11B2u    3.327007
      11B1u    3.327007    11B3u    3.327007    18Ag     3.485610
       7B3g    3.485610     7B2g    3.485610     7B1g    3.485610
       8B3g    3.485610    19Ag     3.485610     8B1g    3.485610
       8B2g    3.485610    20Ag     3.485610    12B2u    5.251631
      12B1u    5.251631    12B3u    5.251631     9B3g    8.856661
      21Ag     8.856661     9B1g    8.856661     9B2g    8.856661
      22Ag     8.856661    23Ag    16.767579

    Final Occupation by Irrep:
             Ag   B1g   B2g   B3g    Au   B1u   B2u   B3u
    DOCC [     3,    0,    0,    0,    0,    1,    1,    1 ]
    SOCC [     0,    0,    0,    0,    0,    1,    1,    1 ]

  Energy converged.

  @UHF Final Energy:  -397.17321528631169

   => Energetics <=

    Nuclear Repulsion Energy =              0.0000000000000000
    One-Electron Energy =                -542.9323849423290085
    Two-Electron Energy =                 145.7591696560173489
    Total Energy =                       -397.1732152863116880

  UHF NO Occupations:
  HONO-2 :    2B2u 1.0000000
  HONO-1 :    2B3u 1.0000000
  HONO-0 :    2B1u 1.0000000
  LUNO+0 :    4 Ag 0.0004323
  LUNO+1 :    3B3u 0.0000049
  LUNO+2 :    3B1u 0.0000049
  LUNO+3 :    3B2u 0.0000049

Properties will be evaluated at   0.000000,   0.000000,   0.000000 Bohr

Properties computed using the SCF density matrix

  Nuclear Dipole Moment: (a.u.)
     X:     0.0000      Y:     0.0000      Z:     0.0000

  Electronic Dipole Moment: (a.u.)
     X:     0.0000      Y:     0.0000      Z:     0.0000

  Dipole Moment: (a.u.)
     X:     0.0000      Y:     0.0000      Z:     0.0000     Total:     0.0000

  Dipole Moment: (Debye)
     X:     0.0000      Y:     0.0000      Z:     0.0000     Total:     0.0000

*** tstop() called on cqc05 at Thu Aug 20 22:41:12 2020
Module time:
	user time   =       1.75 seconds =       0.03 minutes
	system time =       0.07 seconds =       0.00 minutes
	total time  =          1 seconds =       0.02 minutes
Total time:
	user time   =       1.75 seconds =       0.03 minutes
	system time =       0.07 seconds =       0.00 minutes
	total time  =          1 seconds =       0.02 minutes

*** tstart() called on cqc05
*** at Thu Aug 20 22:41:12 2020

	Wfn Parameters:
	--------------------
	Wavefunction         = CCSD
	Number of irreps     = 8
	Number of MOs        = 89
	Number of active MOs = 84
	AO-Basis             = NONE
	Semicanonical        = false
	Reference            = UHF
	Print Level          = 1

	IRREP	# MOs	# FZDC	# DOCC	# SOCC	# VIRT	# FZVR
	-----	-----	------	------	------	------	------
	 Ag	   23	    2	    1	    0	    20	    0
	 B1g	   9	    0	    0	    0	    9	    0
	 B2g	   9	    0	    0	    0	    9	    0
	 B3g	   9	    0	    0	    0	    9	    0
	 Au	   3	    0	    0	    0	    3	    0
	 B1u	   12	    1	    0	    1	    10	    0
	 B2u	   12	    1	    0	    1	    10	    0
	 B3u	   12	    1	    0	    1	    10	    0
	Transforming integrals...
	IWL integrals will be deleted.
	(OO|OO)...
	Presorting SO-basis two-electron integrals.
	Sorting File: SO Ints (nn|nn) nbuckets = 1
	Transforming the one-electron integrals and constructing Fock matrices
	Starting AA/AB first half-transformation.
	Sorting AA/AB half-transformed integrals.
	Starting BB first half-transformation.
	Sorting BB half-transformed integrals.
	First half integral transformation complete.
	Starting AA second half-transformation.
	Starting AB second half-transformation.
	Starting BB second half-transformation.
	Two-electron integral transformation complete.
	(OO|OV)...
	Starting AA second half-transformation.
	Starting AB second half-transformation.
	Starting BB second half-transformation.
	Two-electron integral transformation complete.
	(OO|VV)...
	Starting AA second half-transformation.
	Starting AB second half-transformation.
	Starting BB second half-transformation.
	Two-electron integral transformation complete.
	(OV|OO)...
	Starting AA/AB first half-transformation.
	Sorting AA/AB half-transformed integrals.
	Starting BB first half-transformation.
	Sorting BB half-transformed integrals.
	First half integral transformation complete.
	Starting AA second half-transformation.
	Starting AB second half-transformation.
	Starting BB second half-transformation.
	Two-electron integral transformation complete.
	(OV|OV)...
	Starting AA second half-transformation.
	Starting AB second half-transformation.
	Starting BB second half-transformation.
	Two-electron integral transformation complete.
	(OV|VV)...
	Starting AA second half-transformation.
	Starting AB second half-transformation.
	Starting BB second half-transformation.
	Two-electron integral transformation complete.
	(VV|OO)...
	Starting AA/AB first half-transformation.
	Sorting AA/AB half-transformed integrals.
	Starting BB first half-transformation.
	Sorting BB half-transformed integrals.
	First half integral transformation complete.
	Starting AA second half-transformation.
	Starting AB second half-transformation.
	Starting BB second half-transformation.
	Two-electron integral transformation complete.
	(VV|OV)...
	Starting AA second half-transformation.
	Starting AB second half-transformation.
	Starting BB second half-transformation.
	Two-electron integral transformation complete.
	(VV|VV)...
	Starting AA second half-transformation.
	Starting AB second half-transformation.
	Starting BB second half-transformation.
	Two-electron integral transformation complete.
	Frozen core energy     =   -387.55345180369625

	Size of irrep 0 of <AB|CD> integrals:      0.190 (MW) /      1.521 (MB)
	Size of irrep 1 of <AB|CD> integrals:      0.153 (MW) /      1.223 (MB)
	Size of irrep 2 of <AB|CD> integrals:      0.153 (MW) /      1.223 (MB)
	Size of irrep 3 of <AB|CD> integrals:      0.153 (MW) /      1.223 (MB)
	Size of irrep 4 of <AB|CD> integrals:      0.109 (MW) /      0.871 (MB)
	Size of irrep 5 of <AB|CD> integrals:      0.166 (MW) /      1.325 (MB)
	Size of irrep 6 of <AB|CD> integrals:      0.166 (MW) /      1.325 (MB)
	Size of irrep 7 of <AB|CD> integrals:      0.166 (MW) /      1.325 (MB)
	Total:                                     1.255 (MW) /     10.037 (MB)

	Size of irrep 0 of <ab|cd> integrals:      0.217 (MW) /      1.737 (MB)
	Size of irrep 1 of <ab|cd> integrals:      0.172 (MW) /      1.378 (MB)
	Size of irrep 2 of <ab|cd> integrals:      0.172 (MW) /      1.378 (MB)
	Size of irrep 3 of <ab|cd> integrals:      0.172 (MW) /      1.378 (MB)
	Size of irrep 4 of <ab|cd> integrals:      0.127 (MW) /      1.020 (MB)
	Size of irrep 5 of <ab|cd> integrals:      0.198 (MW) /      1.584 (MB)
	Size of irrep 6 of <ab|cd> integrals:      0.198 (MW) /      1.584 (MB)
	Size of irrep 7 of <ab|cd> integrals:      0.198 (MW) /      1.584 (MB)
	Total:                                     1.455 (MW) /     11.643 (MB)

	Size of irrep 0 of <Ab|Cd> integrals:      0.964 (MW) /      7.715 (MB)
	Size of irrep 1 of <Ab|Cd> integrals:      0.648 (MW) /      5.184 (MB)
	Size of irrep 2 of <Ab|Cd> integrals:      0.648 (MW) /      5.184 (MB)
	Size of irrep 3 of <Ab|Cd> integrals:      0.648 (MW) /      5.184 (MB)
	Size of irrep 4 of <Ab|Cd> integrals:      0.472 (MW) /      3.776 (MB)
	Size of irrep 5 of <Ab|Cd> integrals:      0.726 (MW) /      5.807 (MB)
	Size of irrep 6 of <Ab|Cd> integrals:      0.726 (MW) /      5.807 (MB)
	Size of irrep 7 of <Ab|Cd> integrals:      0.726 (MW) /      5.807 (MB)
	Total:                                     5.558 (MW) /     44.465 (MB)

	Size of irrep 0 of <IA|BC> integrals:      0.048 (MW) /      0.381 (MB)
	Size of irrep 1 of <IA|BC> integrals:      0.025 (MW) /      0.200 (MB)
	Size of irrep 2 of <IA|BC> integrals:      0.025 (MW) /      0.200 (MB)
	Size of irrep 3 of <IA|BC> integrals:      0.025 (MW) /      0.200 (MB)
	Size of irrep 4 of <IA|BC> integrals:      0.020 (MW) /      0.158 (MB)
	Size of irrep 5 of <IA|BC> integrals:      0.039 (MW) /      0.313 (MB)
	Size of irrep 6 of <IA|BC> integrals:      0.039 (MW) /      0.313 (MB)
	Size of irrep 7 of <IA|BC> integrals:      0.039 (MW) /      0.313 (MB)
	Total:                                     0.260 (MW) /      2.078 (MB)

	Size of irrep 0 of <ia|bc> integrals:      0.020 (MW) /      0.162 (MB)
	Size of irrep 1 of <ia|bc> integrals:      0.007 (MW) /      0.060 (MB)
	Size of irrep 2 of <ia|bc> integrals:      0.007 (MW) /      0.060 (MB)
	Size of irrep 3 of <ia|bc> integrals:      0.007 (MW) /      0.060 (MB)
	Size of irrep 4 of <ia|bc> integrals:      0.002 (MW) /      0.017 (MB)
	Size of irrep 5 of <ia|bc> integrals:      0.010 (MW) /      0.078 (MB)
	Size of irrep 6 of <ia|bc> integrals:      0.010 (MW) /      0.078 (MB)
	Size of irrep 7 of <ia|bc> integrals:      0.010 (MW) /      0.078 (MB)
	Total:                                     0.074 (MW) /      0.594 (MB)

	Size of irrep 0 of <Ia|Bc> integrals:      0.052 (MW) /      0.416 (MB)
	Size of irrep 1 of <Ia|Bc> integrals:      0.027 (MW) /      0.219 (MB)
	Size of irrep 2 of <Ia|Bc> integrals:      0.027 (MW) /      0.219 (MB)
	Size of irrep 3 of <Ia|Bc> integrals:      0.027 (MW) /      0.219 (MB)
	Size of irrep 4 of <Ia|Bc> integrals:      0.021 (MW) /      0.165 (MB)
	Size of irrep 5 of <Ia|Bc> integrals:      0.042 (MW) /      0.334 (MB)
	Size of irrep 6 of <Ia|Bc> integrals:      0.042 (MW) /      0.334 (MB)
	Size of irrep 7 of <Ia|Bc> integrals:      0.042 (MW) /      0.334 (MB)
	Total:                                     0.280 (MW) /      2.240 (MB)

	Size of irrep 0 of <iA|bC> integrals:      0.020 (MW) /      0.157 (MB)
	Size of irrep 1 of <iA|bC> integrals:      0.007 (MW) /      0.058 (MB)
	Size of irrep 2 of <iA|bC> integrals:      0.007 (MW) /      0.058 (MB)
	Size of irrep 3 of <iA|bC> integrals:      0.007 (MW) /      0.058 (MB)
	Size of irrep 4 of <iA|bC> integrals:      0.002 (MW) /      0.016 (MB)
	Size of irrep 5 of <iA|bC> integrals:      0.009 (MW) /      0.068 (MB)
	Size of irrep 6 of <iA|bC> integrals:      0.009 (MW) /      0.068 (MB)
	Size of irrep 7 of <iA|bC> integrals:      0.009 (MW) /      0.068 (MB)
	Total:                                     0.069 (MW) /      0.552 (MB)

	Size of irrep 0 of tIjAb amplitudes:       0.001 (MW) /      0.008 (MB)
	Size of irrep 1 of tIjAb amplitudes:       0.000 (MW) /      0.000 (MB)
	Size of irrep 2 of tIjAb amplitudes:       0.000 (MW) /      0.000 (MB)
	Size of irrep 3 of tIjAb amplitudes:       0.000 (MW) /      0.000 (MB)
	Size of irrep 4 of tIjAb amplitudes:       0.000 (MW) /      0.000 (MB)
	Size of irrep 5 of tIjAb amplitudes:       0.001 (MW) /      0.007 (MB)
	Size of irrep 6 of tIjAb amplitudes:       0.001 (MW) /      0.007 (MB)
	Size of irrep 7 of tIjAb amplitudes:       0.001 (MW) /      0.007 (MB)
	Total:                                     0.004 (MW) /      0.028 (MB)

	Nuclear Rep. energy          =      0.00000000000000
	SCF energy                   =   -397.17321528631169
	One-electron energy          =    -14.17215529342362
	Two-electron (AA) energy     =      2.48739334754284
	Two-electron (BB) energy     =      0.00000000000000
	Two-electron (AB) energy     =      2.06499846326538
	Two-electron energy          =      4.55239181080822
	Reference energy             =   -397.17321528631163

*** tstop() called on cqc05 at Thu Aug 20 22:41:14 2020
Module time:
	user time   =       0.64 seconds =       0.01 minutes
	system time =       0.30 seconds =       0.01 minutes
	total time  =          2 seconds =       0.03 minutes
Total time:
	user time   =       2.39 seconds =       0.04 minutes
	system time =       0.37 seconds =       0.01 minutes
	total time  =          3 seconds =       0.05 minutes

*** tstart() called on cqc05
*** at Thu Aug 20 22:41:14 2020

            **************************
            *                        *
            *        CCENERGY        *
            *                        *
            **************************

    Nuclear Rep. energy (wfn)     =    0.000000000000000
    SCF energy          (wfn)     = -397.173215286311688
    Reference energy    (file100) = -397.173215286311631

    Input parameters:
    -----------------
    Wave function   =     CCSD
    Reference wfn   =     UHF
    Brueckner       =     No
    Memory (Mbytes) =     250000.0
    Maxiter         =     50
    R_Convergence   =     1.0e-07
    E_Convergence   =     1.0e-06
    Restart         =     Yes
    DIIS            =     Yes
    AO Basis        =     NONE
    ABCD            =     NEW
    Cache Level     =     2
    Cache Type      =     LRU
    Print Level     =     1
    Num. of threads =     4
    # Amps to Print =     10
    Print MP2 Amps? =     No
    Analyze T2 Amps =     No
    Print Pair Ener =     No
    Local CC        =     No
    SCS-MP2         =     False
    SCSN-MP2        =     False
    SCS-CCSD        =     False

MP2 correlation energy -0.0968654574391467
                Solving CC Amplitude Equations
                ------------------------------
  Iter             Energy              RMS        T1Diag      D1Diag    New D1Diag    D2Diag
  ----     ---------------------    ---------   ----------  ----------  ----------   --------
     0        -0.096865457439147    0.000e+00    0.000000    0.000000    0.000000    0.000000
     1        -0.110172003283923    3.860e-02    0.004036    0.000000    0.000000    0.000000
     2        -0.114102683629564    1.152e-02    0.005618    0.000000    0.000000    0.000000
     3        -0.114274168928924    1.989e-03    0.005828    0.000000    0.000000    0.000000
     4        -0.114267209492335    2.991e-04    0.005823    0.000000    0.000000    0.000000
     5        -0.114264328044690    3.859e-05    0.005821    0.000000    0.000000    0.000000
     6        -0.114264762359806    8.591e-06    0.005820    0.000000    0.000000    0.000000
     7        -0.114264743589372    2.303e-06    0.005820    0.000000    0.000000    0.000000
     8        -0.114264725357672    4.999e-07    0.005820    0.000000    0.000000    0.000000
     9        -0.114264728389203    9.698e-08    0.005820    0.000000    0.000000    0.000000
     9        -0.114264728389203    9.698e-08    0.005820    0.000000    0.000000    0.000000

    Iterations converged.

    CCSD corr. energy   =   -0.114264728389203
    PPL corr. energy    =    0.035647392429972
    OS PPL corr. energy =    0.029341409993495
    SS PPL corr. energy =    0.006305982436477
    Largest TIA Amplitudes:
              0   5        -0.0030187684
              3  71        -0.0029382607
              1  51        -0.0029382487
              2  61        -0.0029382460
              3  76         0.0022062454
              1  56         0.0022062403
              2  66         0.0022062393
              0  11         0.0018529464
              0   0         0.0018388202
              3  70         0.0016693545

    Largest Tia Amplitudes:
              0   0        -0.0073071943
              0   3         0.0071428210
              0  19        -0.0003877965

      * MP2 total energy                      = -397.270080743750782
      * CCSD total energy                     = -397.287480014700861
*** Psi4 exiting successfully. Buy a developer a beer!
