                               Psi4 1.4a3.dev88

  ==> Input File <==

--------------------------------------------------------------------------
# Any line starting with the # character is a comment line
memory 250000 mb
molecule molecule{
0 3
S          0.0000000000        0.0000000000        0.9552576298
S          0.0000000000        0.0000000000       -0.9552576298
}

set {
  reference uhf
  basis aug-cc-pV(Q+d)Z
  scf_type OUT_OF_CORE
  freeze_core true
}

energy('ccsd(t)')
--------------------------------------------------------------------------

    Molecular point group: d2h

    Geometry (in Angstrom), charge = 0, multiplicity = 3:

       Center              X                  Y                   Z               Mass
    ------------   -----------------  -----------------  -----------------  -----------------
         S            0.000000000000     0.000000000000     0.955257629800    31.972071174400
         S            0.000000000000     0.000000000000    -0.955257629800    31.972071174400

  Charge       = 0
  Multiplicity = 3
  Basis Set: AUG-CC-PV(Q+D)Z
    Blend: AUG-CC-PV(Q+D)Z

    Orbital Energies [Eh]
    ---------------------

    Alpha Occupied:

       1Ag   -92.021142     1B1u  -92.021139     2Ag    -9.020473
       2B1u   -9.020141     1B3u   -6.707667     1B2u   -6.707667
       1B2g   -6.707613     1B3g   -6.707613     3Ag    -6.697179
       3B1u   -6.696262     4Ag    -1.107161     4B1u   -0.870826
       2B3u   -0.534018     2B2u   -0.534018     5Ag    -0.532759
       2B2g   -0.384285     2B3g   -0.384285

    Alpha Virtual:

       5B1u    0.042526     6Ag     0.070485     3B2u    0.078577
       3B3u    0.078577     3B3g    0.095596     3B2g    0.095596
       7Ag     0.099417     6B1u    0.125019     8Ag     0.176338
       1B1g    0.176338     7B1u    0.197024     9Ag     0.233520
       4B3u    0.234793     4B2u    0.234793     8B1u    0.253789
       1Au     0.253789     4B3g    0.270067     4B2g    0.270067
       9B1u    0.296455     5B3u    0.382246     5B2u    0.382246
      10Ag     0.424975     6B3u    0.453061     6B2u    0.453061
      11Ag     0.453297     2B1g    0.453297    10B1u    0.469708
      12Ag     0.469775     5B2g    0.487815     5B3g    0.487815
       7B2u    0.516682     7B3u    0.516682    11B1u    0.536677
       2Au     0.536677    13Ag     0.585914    14Ag     0.615941
       3B1g    0.615941     6B2g    0.620126     6B3g    0.620126
       7B3g    0.634391     7B2g    0.634391    12B1u    0.683530
       8B3u    0.763516     8B2u    0.763516    13B1u    0.776214
       3Au     0.776214    14B1u    0.830335    15Ag     0.909590
       8B2g    0.942799     8B3g    0.942799    15B1u    1.052682
       9B3u    1.227129     9B2u    1.227129     4B1g    1.256034
      16Ag     1.256034    17Ag     1.320966     4Au     1.351098
      16B1u    1.351098     9B2g    1.375924     9B3g    1.375924
      10B3u    1.386736    10B2u    1.386736    18Ag     1.391611
       5B1g    1.391611    17B1u    1.407256    19Ag     1.410193
      20Ag     1.419115     6B1g    1.419115    11B2u    1.502784
      11B3u    1.502784    12B3u    1.506785    12B2u    1.506785
       5Au     1.554930    18B1u    1.554930    10B2g    1.555652
      10B3g    1.555652    13B3u    1.582144    13B2u    1.582144
      19B1u    1.638230     6Au     1.638230    11B2g    1.686357
      11B3g    1.686357    21Ag     1.693600    20B1u    1.732148
      22Ag     1.748422     7B1g    1.748422    12B2g    1.748843
      12B3g    1.748843    13B2g    1.814266    13B3g    1.814266
      21B1u    2.132235    14B3u    2.138524    14B2u    2.138524
      22B1u    2.249650     7Au     2.249650    23B1u    2.294804
      23Ag     2.299362    14B2g    2.631998    14B3g    2.631998
      24Ag     2.770651    24B1u    2.803431     8B1g    3.024000
      25Ag     3.024000    15B3u    3.102427    15B2u    3.102427
       8Au     3.109614    25B1u    3.109614    26Ag     3.283014
      27Ag     3.450990    15B2g    3.483548    15B3g    3.483548
      16B3u    3.562053    16B2u    3.562053     9B1g    3.574682
      28Ag     3.574682    17B2u    3.633540    17B3u    3.633540
      16B2g    3.694938    16B3g    3.694938    18B3u    3.740835
      18B2u    3.740835    10B1g    3.775543    29Ag     3.775543
      30Ag     3.785531    11B1g    3.785531    26B1u    3.793705
      27B1u    3.855182     9Au     3.855182    10Au     3.871861
      28B1u    3.871861    17B2g    3.949720    17B3g    3.949720
      18B2g    4.007485    18B3g    4.007485    19B3u    4.080078
      19B2u    4.080078    29B1u    4.170317    31Ag     4.268129
      11Au     4.334474    30B1u    4.334474    19B2g    4.773779
      19B3g    4.773779    31B1u    5.243977    20B3u    5.659252
      20B2u    5.659252    20B2g    6.307186    20B3g    6.307186
      32B1u    6.996039    32Ag     7.028288    12B1g    9.229725
      33Ag     9.229725    12Au     9.297907    33B1u    9.297907
      21B2u    9.333480    21B3u    9.333480    21B3g    9.666282
      21B2g    9.666282    34Ag     9.682928    34B1u    9.808483
      35Ag    18.201191    35B1u   20.858797

    Beta Occupied:

       1Ag   -92.009816     1B1u  -92.009811     2Ag    -9.008131
       2B1u   -9.007695     3Ag    -6.691907     3B1u   -6.690939
       1B2u   -6.679056     1B3u   -6.679056     1B3g   -6.678961
       1B2g   -6.678961     4Ag    -1.041546     4B1u   -0.727590
       5Ag    -0.493681     2B2u   -0.409367     2B3u   -0.409367

    Beta Virtual:

       2B3g    0.003431     2B2g    0.003431     5B1u    0.045127
       6Ag     0.072037     3B2u    0.080598     3B3u    0.080598
       7Ag     0.097815     3B3g    0.104133     3B2g    0.104133
       6B1u    0.140563     8Ag     0.184174     1B1g    0.184174
       7B1u    0.205564     9Ag     0.237845     4B2u    0.248403
       4B3u    0.248403     1Au     0.265504     8B1u    0.265504
       4B3g    0.281848     4B2g    0.281848     9B1u    0.306487
       5B2u    0.390825     5B3u    0.390825    10Ag     0.427673
      10B1u    0.476692    11Ag     0.479964     2B1g    0.484356
      12Ag     0.484356     6B2u    0.498987     6B3u    0.498987
       5B3g    0.512624     5B2g    0.512624     7B2u    0.519384
       7B3u    0.519384    13Ag     0.596752     2Au     0.597897
      11B1u    0.597897     3B1g    0.628866    14Ag     0.628866
       6B3g    0.635803     6B2g    0.635803     7B3g    0.641954
       7B2g    0.641954    12B1u    0.694816     8B2u    0.772542
       8B3u    0.772542     3Au     0.794048    13B1u    0.794048
      14B1u    0.842734    15Ag     0.936029     8B3g    0.969526
       8B2g    0.969526    15B1u    1.062841     9B2u    1.233416
       9B3u    1.233416     4B1g    1.288451    16Ag     1.288451
      17Ag     1.321252    10B2u    1.389634    10B3u    1.389634
       4Au     1.392214    16B1u    1.392214    18Ag     1.399258
       5B1g    1.399258     9B3g    1.411078     9B2g    1.411078
      19Ag     1.416367    17B1u    1.425495     6B1g    1.442115
      20Ag     1.442115    11B2u    1.532494    11B3u    1.532494
      12B2u    1.544097    12B3u    1.544097    18B1u    1.567143
       5Au     1.567143    10B3g    1.590955    10B2g    1.590955
      13B2u    1.603602    13B3u    1.603602     6Au     1.655984
      19B1u    1.655984    11B3g    1.693693    11B2g    1.693693
      21Ag     1.701265    20B1u    1.742944     7B1g    1.757413
      22Ag     1.757413    12B3g    1.768425    12B2g    1.768425
      13B3g    1.823751    13B2g    1.823751    21B1u    2.142817
      14B2u    2.150264    14B3u    2.150264     7Au     2.264332
      22B1u    2.264332    23B1u    2.306693    23Ag     2.328513
      14B3g    2.654172    14B2g    2.654172    24Ag     2.778185
      24B1u    2.822542     8B1g    3.044693    25Ag     3.044693
      15B2u    3.113572    15B3u    3.113572     8Au     3.130537
      25B1u    3.130537    26Ag     3.288500    27Ag     3.461438
      15B3g    3.497883    15B2g    3.497883    16B2u    3.569747
      16B3u    3.569747     9B1g    3.585543    28Ag     3.585543
      17B2u    3.671341    17B3u    3.671341    16B2g    3.732889
      16B3g    3.732889    18B3u    3.761005    18B2u    3.761005
      10B1g    3.799798    29Ag     3.799798    26B1u    3.805337
      30Ag     3.816153    11B1g    3.816153    27B1u    3.885723
       9Au     3.885723    10Au     3.894192    28B1u    3.894192
      17B3g    3.963708    17B2g    3.963708    18B2g    4.028766
      18B3g    4.028766    19B2u    4.096144    19B3u    4.096144
      29B1u    4.181911    31Ag     4.277156    11Au     4.349334
      30B1u    4.349334    19B3g    4.783498    19B2g    4.783498
      31B1u    5.248809    20B2u    5.687576    20B3u    5.687576
      20B3g    6.332066    20B2g    6.332066    32B1u    7.001466
      32Ag     7.033092    12B1g    9.243865    33Ag     9.243865
      12Au     9.312346    33B1u    9.312346    21B2u    9.341213
      21B3u    9.341213    21B3g    9.674453    21B2g    9.674453
      34Ag     9.690417    34B1u    9.815895    35Ag    18.214776
      35B1u   20.870834

    Final Occupation by Irrep:
             Ag   B1g   B2g   B3g    Au   B1u   B2u   B3u
    DOCC [     5,    0,    1,    1,    0,    4,    2,    2 ]
    SOCC [     0,    0,    1,    1,    0,    0,    0,    0 ]

  @UHF Final Energy:  -795.10725202487288

   => Energetics <=

    Nuclear Repulsion Energy =             70.9072409920886599
    One-Electron Energy =               -1240.1588516244075890
    Two-Electron Energy =                 374.1443586074461223
    Total Energy =                       -795.1072520248728779

  UHF NO Occupations:
  HONO-2 :    2B3u 1.9879091
  HONO-1 :    2B2g 1.0000000
  HONO-0 :    2B3g 1.0000000
  LUNO+0 :    3B3u 0.0120909
  LUNO+1 :    3B2u 0.0120909
  LUNO+2 :    5B1u 0.0038993
  LUNO+3 :    6 Ag 0.0029334

Computation Completed

Properties will be evaluated at   0.000000,   0.000000,   0.000000 [a0]

Properties computed using the SCF density matrix

  Nuclear Dipole Moment: [e a0]
     X:     0.0000      Y:     0.0000      Z:     0.0000

  Electronic Dipole Moment: [e a0]
     X:     0.0000      Y:     0.0000      Z:     0.0000

  Dipole Moment: [e a0]
     X:     0.0000      Y:     0.0000      Z:     0.0000     Total:     0.0000

  Dipole Moment: [D]
     X:     0.0000      Y:     0.0000      Z:     0.0000     Total:     0.0000

*** tstop() called on l43 at Wed Jan 20 21:38:54 2021
Module time:
	user time   =      31.90 seconds =       0.53 minutes
	system time =       4.76 seconds =       0.08 minutes
	total time  =         31 seconds =       0.52 minutes
Total time:
	user time   =      31.90 seconds =       0.53 minutes
	system time =       4.76 seconds =       0.08 minutes
	total time  =         31 seconds =       0.52 minutes

*** tstart() called on l43
*** at Wed Jan 20 21:38:54 2021

	Wfn Parameters:
	--------------------
	Wavefunction         = CCSD_T
	Number of irreps     = 8
	Number of MOs        = 178
	Number of active MOs = 168
	AO-Basis             = NONE
	Semicanonical        = false
	Reference            = UHF
	Print Level          = 1

	IRREP	# MOs	# FZDC	# DOCC	# SOCC	# VIRT	# FZVR
	-----	-----	------	------	------	------	------
	 Ag	   35	    3	    2	    0	    30	    0
	 B1g	   12	    0	    0	    0	    12	    0
	 B2g	   21	    1	    0	    1	    19	    0
	 B3g	   21	    1	    0	    1	    19	    0
	 Au	   12	    0	    0	    0	    12	    0
	 B1u	   35	    3	    1	    0	    31	    0
	 B2u	   21	    1	    1	    0	    19	    0
	 B3u	   21	    1	    1	    0	    19	    0
	Transforming integrals...
	IWL integrals will be deleted.
	(OO|OO)...
	Presorting SO-basis two-electron integrals.
	Sorting File: SO Ints (nn|nn) nbuckets = 1
	Constructing frozen core operators
	Starting AA/AB first half-transformation.
	Sorting AA/AB half-transformed integrals.
	Starting BB first half-transformation.
	Sorting BB half-transformed integrals.
	First half integral transformation complete.
	Starting AA second half-transformation.
	Starting AB second half-transformation.
	Starting BB second half-transformation.
	Two-electron integral transformation complete.
	(OO|OV)...
	Starting AA second half-transformation.
	Starting AB second half-transformation.
	Starting BB second half-transformation.
	Two-electron integral transformation complete.
	(OO|VV)...
	Starting AA second half-transformation.
	Starting AB second half-transformation.
	Starting BB second half-transformation.
	Two-electron integral transformation complete.
	(OV|OO)...
	Starting AA/AB first half-transformation.
	Sorting AA/AB half-transformed integrals.
	Starting BB first half-transformation.
	Sorting BB half-transformed integrals.
	First half integral transformation complete.
	Starting AA second half-transformation.
	Starting AB second half-transformation.
	Starting BB second half-transformation.
	Two-electron integral transformation complete.
	(OV|OV)...
	Starting AA second half-transformation.
	Starting AB second half-transformation.
	Starting BB second half-transformation.
	Two-electron integral transformation complete.
	(OV|VV)...
	Starting AA second half-transformation.
	Starting AB second half-transformation.
	Starting BB second half-transformation.
	Two-electron integral transformation complete.
	(VV|OO)...
	Starting AA/AB first half-transformation.
	Sorting AA/AB half-transformed integrals.
	Starting BB first half-transformation.
	Sorting BB half-transformed integrals.
	First half integral transformation complete.
	Starting AA second half-transformation.
	Starting AB second half-transformation.
	Starting BB second half-transformation.
	Two-electron integral transformation complete.
	(VV|OV)...
	Starting AA second half-transformation.
	Starting AB second half-transformation.
	Starting BB second half-transformation.
	Two-electron integral transformation complete.
	(VV|VV)...
	Starting AA second half-transformation.
	Starting AB second half-transformation.
	Starting BB second half-transformation.
	Two-electron integral transformation complete.
	Frozen core energy     =   -836.04462385017575

	Size of irrep 0 of <AB|CD> integrals:      2.945 (MW) /     23.557 (MB)
	Size of irrep 1 of <AB|CD> integrals:      2.114 (MW) /     16.913 (MB)
	Size of irrep 2 of <AB|CD> integrals:      2.608 (MW) /     20.866 (MB)
	Size of irrep 3 of <AB|CD> integrals:      2.608 (MW) /     20.866 (MB)
	Size of irrep 4 of <AB|CD> integrals:      2.114 (MW) /     16.913 (MB)
	Size of irrep 5 of <AB|CD> integrals:      3.226 (MW) /     25.805 (MB)
	Size of irrep 6 of <AB|CD> integrals:      2.608 (MW) /     20.866 (MB)
	Size of irrep 7 of <AB|CD> integrals:      2.608 (MW) /     20.866 (MB)
	Total:                                    20.831 (MW) /    166.651 (MB)

	Size of irrep 0 of <ab|cd> integrals:      3.077 (MW) /     24.612 (MB)
	Size of irrep 1 of <ab|cd> integrals:      2.229 (MW) /     17.832 (MB)
	Size of irrep 2 of <ab|cd> integrals:      2.746 (MW) /     21.965 (MB)
	Size of irrep 3 of <ab|cd> integrals:      2.746 (MW) /     21.965 (MB)
	Size of irrep 4 of <ab|cd> integrals:      2.226 (MW) /     17.809 (MB)
	Size of irrep 5 of <ab|cd> integrals:      3.364 (MW) /     26.908 (MB)
	Size of irrep 6 of <ab|cd> integrals:      2.749 (MW) /     21.992 (MB)
	Size of irrep 7 of <ab|cd> integrals:      2.749 (MW) /     21.992 (MB)
	Total:                                    21.884 (MW) /    175.075 (MB)

	Size of irrep 0 of <Ab|Cd> integrals:     13.184 (MW) /    105.473 (MB)
	Size of irrep 1 of <Ab|Cd> integrals:      8.679 (MW) /     69.431 (MB)
	Size of irrep 2 of <Ab|Cd> integrals:     10.706 (MW) /     85.648 (MB)
	Size of irrep 3 of <Ab|Cd> integrals:     10.706 (MW) /     85.648 (MB)
	Size of irrep 4 of <Ab|Cd> integrals:      8.679 (MW) /     69.431 (MB)
	Size of irrep 5 of <Ab|Cd> integrals:     13.177 (MW) /    105.415 (MB)
	Size of irrep 6 of <Ab|Cd> integrals:     10.713 (MW) /     85.700 (MB)
	Size of irrep 7 of <Ab|Cd> integrals:     10.713 (MW) /     85.700 (MB)
	Total:                                    86.556 (MW) /    692.447 (MB)

	Size of irrep 0 of <IA|BC> integrals:      0.600 (MW) /      4.800 (MB)
	Size of irrep 1 of <IA|BC> integrals:      0.326 (MW) /      2.606 (MB)
	Size of irrep 2 of <IA|BC> integrals:      0.459 (MW) /      3.669 (MB)
	Size of irrep 3 of <IA|BC> integrals:      0.459 (MW) /      3.669 (MB)
	Size of irrep 4 of <IA|BC> integrals:      0.326 (MW) /      2.606 (MB)
	Size of irrep 5 of <IA|BC> integrals:      0.603 (MW) /      4.828 (MB)
	Size of irrep 6 of <IA|BC> integrals:      0.459 (MW) /      3.669 (MB)
	Size of irrep 7 of <IA|BC> integrals:      0.459 (MW) /      3.669 (MB)
	Total:                                     3.690 (MW) /     29.516 (MB)

	Size of irrep 0 of <ia|bc> integrals:      0.474 (MW) /      3.788 (MB)
	Size of irrep 1 of <ia|bc> integrals:      0.221 (MW) /      1.768 (MB)
	Size of irrep 2 of <ia|bc> integrals:      0.338 (MW) /      2.704 (MB)
	Size of irrep 3 of <ia|bc> integrals:      0.338 (MW) /      2.704 (MB)
	Size of irrep 4 of <ia|bc> integrals:      0.227 (MW) /      1.814 (MB)
	Size of irrep 5 of <ia|bc> integrals:      0.484 (MW) /      3.873 (MB)
	Size of irrep 6 of <ia|bc> integrals:      0.332 (MW) /      2.653 (MB)
	Size of irrep 7 of <ia|bc> integrals:      0.332 (MW) /      2.653 (MB)
	Total:                                     2.745 (MW) /     21.958 (MB)

	Size of irrep 0 of <Ia|Bc> integrals:      0.614 (MW) /      4.909 (MB)
	Size of irrep 1 of <Ia|Bc> integrals:      0.336 (MW) /      2.687 (MB)
	Size of irrep 2 of <Ia|Bc> integrals:      0.471 (MW) /      3.769 (MB)
	Size of irrep 3 of <Ia|Bc> integrals:      0.471 (MW) /      3.769 (MB)
	Size of irrep 4 of <Ia|Bc> integrals:      0.336 (MW) /      2.687 (MB)
	Size of irrep 5 of <Ia|Bc> integrals:      0.617 (MW) /      4.937 (MB)
	Size of irrep 6 of <Ia|Bc> integrals:      0.468 (MW) /      3.744 (MB)
	Size of irrep 7 of <Ia|Bc> integrals:      0.468 (MW) /      3.744 (MB)
	Total:                                     3.781 (MW) /     30.247 (MB)

	Size of irrep 0 of <iA|bC> integrals:      0.468 (MW) /      3.747 (MB)
	Size of irrep 1 of <iA|bC> integrals:      0.218 (MW) /      1.744 (MB)
	Size of irrep 2 of <iA|bC> integrals:      0.327 (MW) /      2.618 (MB)
	Size of irrep 3 of <iA|bC> integrals:      0.327 (MW) /      2.618 (MB)
	Size of irrep 4 of <iA|bC> integrals:      0.218 (MW) /      1.744 (MB)
	Size of irrep 5 of <iA|bC> integrals:      0.472 (MW) /      3.775 (MB)
	Size of irrep 6 of <iA|bC> integrals:      0.324 (MW) /      2.592 (MB)
	Size of irrep 7 of <iA|bC> integrals:      0.324 (MW) /      2.592 (MB)
	Total:                                     2.679 (MW) /     21.430 (MB)

	Size of irrep 0 of tIjAb amplitudes:       0.025 (MW) /      0.203 (MB)
	Size of irrep 1 of tIjAb amplitudes:       0.006 (MW) /      0.047 (MB)
	Size of irrep 2 of tIjAb amplitudes:       0.013 (MW) /      0.105 (MB)
	Size of irrep 3 of tIjAb amplitudes:       0.013 (MW) /      0.105 (MB)
	Size of irrep 4 of tIjAb amplitudes:       0.006 (MW) /      0.047 (MB)
	Size of irrep 5 of tIjAb amplitudes:       0.022 (MW) /      0.174 (MB)
	Size of irrep 6 of tIjAb amplitudes:       0.016 (MW) /      0.131 (MB)
	Size of irrep 7 of tIjAb amplitudes:       0.016 (MW) /      0.131 (MB)
	Total:                                     0.118 (MW) /      0.943 (MB)

	Nuclear Rep. energy          =     70.90724099208866
	SCF energy                   =   -795.10725202487288
	One-electron energy          =    -52.51083433482158
	Two-electron (AA) energy     =      6.50984410316617
	Two-electron (BB) energy     =      3.14407046414449
	Two-electron (AB) energy     =     12.88705060072274
	Two-electron energy          =     22.54096516803340
	Reference energy             =   -795.10725202487527

*** tstop() called on l43 at Wed Jan 20 21:39:15 2021
Module time:
	user time   =      13.79 seconds =       0.23 minutes
	system time =       7.07 seconds =       0.12 minutes
	total time  =         21 seconds =       0.35 minutes
Total time:
	user time   =      45.69 seconds =       0.76 minutes
	system time =      11.83 seconds =       0.20 minutes
	total time  =         52 seconds =       0.87 minutes
            **************************
            *                        *
            *        CCENERGY        *
            *                        *
            **************************

    Nuclear Rep. energy (wfn)     =   70.907240992088660
    SCF energy          (wfn)     = -795.107252024872878
    Reference energy    (file100) = -795.107252024875265

    Input parameters:
    -----------------
    Wave function   =     CCSD_T
    Reference wfn   =     UHF
    Brueckner       =     No
    Memory (Mbytes) =     250000.0
    Maxiter         =     50
    R_Convergence   =     1.0e-07
    E_Convergence   =     1.0e-06
    Restart         =     Yes
    DIIS            =     Yes

      * MP2 total energy                      = -795.451037363041223
      * CCSD total energy                     = -795.474334811593735
      * CCSD(T) total energy                     = -795.497352400227442
*** Psi4 exiting successfully. Buy a developer a beer!
