                               Psi4 1.4a3.dev88

  ==> Input File <==

--------------------------------------------------------------------------
# Any line starting with the # character is a comment line
memory 250000 mb
molecule molecule{
1 1
P          0.0000000000        0.0000000000        0.0598478687
H          0.0000000000        1.0213497563       -0.9195554905
H          0.0000000000       -1.0213497563       -0.9195554905
}

set {
  reference rhf
  basis aug-cc-pV(d+d)Z
  scf_type OUT_OF_CORE
  freeze_core true
}

energy('ccsd(t)')
--------------------------------------------------------------------------

    Molecular point group: c2v

    Geometry (in Angstrom), charge = 1, multiplicity = 1:

       Center              X                  Y                   Z               Mass
    ------------   -----------------  -----------------  -----------------  -----------------
         P            0.000000000000     0.000000000000     0.059841455808    30.973761998420
         H           -0.000000000000     1.021349756300    -0.919561903392     1.007825032230
         H            0.000000000000    -1.021349756300    -0.919561903392     1.007825032230

  Charge       = 1
  Multiplicity = 1
  Basis Set: AUG-CC-PV(D+D)Z
    Blend: AUG-CC-PV(D+D)Z

    Orbital Energies [Eh]
    ---------------------

    Doubly Occupied:

       1A1   -80.345445     2A1    -7.877714     1B1    -5.771007
       1B2    -5.767830     3A1    -5.766775     4A1    -1.139345
       2B2    -0.829133     5A1    -0.728810

  @RHF Final Energy:  -341.53550035934614

   => Energetics <=

    Nuclear Repulsion Energy =             11.4779108150844671
    One-Electron Energy =                -489.5747032603526350
    Two-Electron Energy =                 136.5612920859220480
    Total Energy =                       -341.5355003593461447

  Dipole Moment: [D]
     X:     0.0000      Y:     0.0000      Z:    -1.1899     Total:     1.1899

      * MP2 total energy                      = -341.635350964156487
      * CCSD total energy                     = -341.665680431615328
      * CCSD(T) total energy                  = -341.668514575144798
*** Psi4 exiting successfully. Buy a developer a beer!
