                               Psi4 1.4a3.dev88

  ==> Input File <==

--------------------------------------------------------------------------
# Any line starting with the # character is a comment line
memory 250000 mb
molecule molecule{
1 1
P          0.0000000000        0.0000000000        0.0598478687
H          0.0000000000        1.0213497563       -0.9195554905
H          0.0000000000       -1.0213497563       -0.9195554905
}

set {
  reference rhf
  basis aug-cc-pV(t+d)Z
  scf_type OUT_OF_CORE
  freeze_core true
}

energy('ccsd(t)')
--------------------------------------------------------------------------

    Molecular point group: c2v

    Geometry (in Angstrom), charge = 1, multiplicity = 1:

       Center              X                  Y                   Z               Mass
    ------------   -----------------  -----------------  -----------------  -----------------
         P            0.000000000000     0.000000000000     0.059841455808    30.973761998420
         H           -0.000000000000     1.021349756300    -0.919561903392     1.007825032230
         H            0.000000000000    -1.021349756300    -0.919561903392     1.007825032230

  Charge       = 1
  Multiplicity = 1
  Basis Set: AUG-CC-PV(T+D)Z
    Blend: AUG-CC-PV(T+D)Z

    Orbital Energies [Eh]
    ---------------------

    Doubly Occupied:

       1A1   -80.336537     2A1    -7.871875     1B1    -5.763824
       1B2    -5.761422     3A1    -5.760712     4A1    -1.137708
       2B2    -0.829843     5A1    -0.729339

  @RHF Final Energy:  -341.54676560028952

   => Energetics <=

    Nuclear Repulsion Energy =             11.4779108150844671
    One-Electron Energy =                -489.6668339260164657
    Two-Electron Energy =                 136.6421575106424768
    Total Energy =                       -341.5467656002895183

  Dipole Moment: [D]
     X:     0.0000      Y:     0.0000      Z:    -1.1612     Total:     1.1612

      * MP2 total energy                      = -341.669593098464759
      * CCSD total energy                     = -341.698542648717194
      * CCSD(T) total energy                  = -341.702834386657628
*** Psi4 exiting successfully. Buy a developer a beer!
