                               Psi4 1.4a3.dev88

  ==> Input File <==

--------------------------------------------------------------------------
# Any line starting with the # character is a comment line
memory 250000 mb
molecule molecule{
1 1
P          0.0000000000        0.0000000000        0.0598478687
H          0.0000000000        1.0213497563       -0.9195554905
H          0.0000000000       -1.0213497563       -0.9195554905
}

set {
  reference rhf
  basis aug-cc-pV(Q+d)Z
  scf_type OUT_OF_CORE
  freeze_core true
}

energy('ccsd(t)')
--------------------------------------------------------------------------

    Molecular point group: c2v

    Geometry (in Angstrom), charge = 1, multiplicity = 1:

       Center              X                  Y                   Z               Mass
    ------------   -----------------  -----------------  -----------------  -----------------
         P            0.000000000000     0.000000000000     0.059841455808    30.973761998420
         H           -0.000000000000     1.021349756300    -0.919561903392     1.007825032230
         H            0.000000000000    -1.021349756300    -0.919561903392     1.007825032230

  Charge       = 1
  Multiplicity = 1
  Basis Set: AUG-CC-PV(Q+D)Z
    Blend: AUG-CC-PV(Q+D)Z

    Orbital Energies [Eh]
    ---------------------

    Doubly Occupied:

       1A1   -80.335432     2A1    -7.871414     1B1    -5.763737
       1B2    -5.761156     3A1    -5.760379     4A1    -1.137576
       2B2    -0.829953     5A1    -0.729430

  @RHF Final Energy:  -341.54979991071360

   => Energetics <=

    Nuclear Repulsion Energy =             11.4779108150844671
    One-Electron Energy =                -489.6772677333002548
    Two-Electron Energy =                 136.6495570075022385
    Total Energy =                       -341.5497999107135456

  Dipole Moment: [D]
     X:     0.0000      Y:     0.0000      Z:    -1.1569     Total:     1.1569

      * MP2 total energy                      = -341.680501745159404
      * CCSD total energy                     = -341.707253327288186
      * CCSD(T) total energy                  = -341.711919979677418
*** Psi4 exiting successfully. Buy a developer a beer!
