                               Psi4 1.4a3.dev88

  ==> Input File <==

--------------------------------------------------------------------------
# Any line starting with the # character is a comment line
memory 250000 mb
molecule molecule{
-1 3
P          0.0000000000        0.0000000000        0.5283745064
O          0.0000000000        0.0000000000       -1.0228974307
}

set {
  reference uhf
  basis aug-cc-pV(d+d)Z
  scf_type OUT_OF_CORE
  freeze_core true
}

energy('ccsd(t)')
--------------------------------------------------------------------------

    Molecular point group: c2v

    Geometry (in Angstrom), charge = -1, multiplicity = 3:

       Center              X                  Y                   Z               Mass
    ------------   -----------------  -----------------  -----------------  -----------------
         P            0.000000000000     0.000000000000     0.528276800035    30.973761998420
         O            0.000000000000     0.000000000000    -1.022995137065    15.994914619570

  Charge       = -1
  Multiplicity = 3
  Basis Set: AUG-CC-PV(D+D)Z
    Blend: AUG-CC-PV(D+D)Z

    Orbital Energies [Eh]
    ---------------------

    Alpha Occupied:

       1A1   -79.744321     2A1   -20.323290     3A1    -7.279261
       1B2    -5.178409     1B1    -5.178409     4A1    -5.168931
       5A1    -1.085383     6A1    -0.522945     2B1    -0.321931
       2B2    -0.321931     7A1    -0.289207     3B2    -0.073954
       3B1    -0.073954

    Alpha Virtual:

       8A1     0.220480     9A1     0.243621     4B2     0.249211
       4B1     0.249211    10A1     0.381326     5B1     0.421368
       5B2     0.421368    11A1     0.436680     1A2     0.471769
      12A1     0.471769    13A1     0.590893     6B2     0.599855
       6B1     0.599855    14A1     0.730534     7B2     0.912315
       7B1     0.912315    15A1     0.955509     2A2     1.061773
      16A1     1.061773    17A1     1.102364     8B2     1.106778
       8B1     1.106778    18A1     1.273586     3A2     1.273586
      19A1     1.362097     9B1     1.499640     9B2     1.499640
      20A1     1.700128    10B1     1.779634    10B2     1.779635
      21A1     1.954067    22A1     3.051277    23A1     3.835207
       4A2     3.835207    11B1     3.910053    11B2     3.910053
      24A1     3.935382     5A2     4.565997    25A1     4.565997
      12B2     4.646789    12B1     4.646789    26A1     4.685802

    Beta Occupied:

       1A1   -79.736222     2A1   -20.296619     3A1    -7.269889
       4A1    -5.166602     1B1    -5.155318     1B2    -5.155318
       5A1    -1.015208     6A1    -0.418916     7A1    -0.217328
       2B2    -0.205021     2B1    -0.205021

    Beta Virtual:

       8A1     0.222793     3B2     0.223880     3B1     0.223880
       9A1     0.256015     4B1     0.351140     4B2     0.351140
      10A1     0.389776     5B2     0.433028     5B1     0.433028
      11A1     0.453821     1A2     0.530646    12A1     0.530646
      13A1     0.600702     6B2     0.642416     6B1     0.642416
      14A1     0.762780     7B1     0.966785     7B2     0.966785
      15A1     0.968151    16A1     1.107366    17A1     1.124605
       2A2     1.124605     8B1     1.139574     8B2     1.139574
      18A1     1.288758     3A2     1.288758    19A1     1.390976
       9B2     1.527800     9B1     1.527800    20A1     1.715825
      10B2     1.826320    10B1     1.826320    21A1     1.971265
      22A1     3.066734    23A1     3.889805     4A2     3.889805
      11B2     3.941963    11B1     3.941963    24A1     3.963757
       5A2     4.576519    25A1     4.576519    12B2     4.653132
      12B1     4.653132    26A1     4.690531

    Final Occupation by Irrep:
             A1    A2    B1    B2
    DOCC [     7,    0,    2,    2 ]
    SOCC [     0,    0,    1,    1 ]

  @UHF Final Energy:  -415.61997442942203

   => Energetics <=

    Nuclear Repulsion Energy =             40.9349668241349036
    One-Electron Energy =                -662.7064939933120513
    Two-Electron Energy =                 206.1515527397551750
    Total Energy =                       -415.6199744294219727

  UHF NO Occupations:
  HONO-2 :    7 A1 1.9923037
  HONO-1 :    3 B2 1.0000000
  HONO-0 :    3 B1 1.0000000
  LUNO+0 :    8 A1 0.0076963
  LUNO+1 :    4 B1 0.0062624
  LUNO+2 :    4 B2 0.0062624
  LUNO+3 :    9 A1 0.0005303

Computation Completed

Properties will be evaluated at   0.000000,   0.000000,   0.000000 [a0]

Properties computed using the SCF density matrix

  Nuclear Dipole Moment: [e a0]
     X:     0.0000      Y:     0.0000      Z:    -0.4910

  Electronic Dipole Moment: [e a0]
     X:     0.0000      Y:     0.0000      Z:     0.7640

  Dipole Moment: [e a0]
     X:     0.0000      Y:     0.0000      Z:     0.2730     Total:     0.2730

  Dipole Moment: [D]
     X:     0.0000      Y:     0.0000      Z:     0.6940     Total:     0.6940

*** tstop() called on n412-039.vsc4.prov at Tue Jan 26 18:34:38 2021
Module time:
	user time   =      31.55 seconds =       0.53 minutes
	system time =       1.67 seconds =       0.03 minutes
	total time  =          4 seconds =       0.07 minutes
Total time:
	user time   =      31.55 seconds =       0.53 minutes
	system time =       1.67 seconds =       0.03 minutes
	total time  =          4 seconds =       0.07 minutes

*** tstart() called on n412-039.vsc4.prov
*** at Tue Jan 26 18:34:38 2021

	Wfn Parameters:
	--------------------
	Wavefunction         = CCSD_T
	Number of irreps     = 4
	Number of MOs        = 55
	Number of active MOs = 49
	AO-Basis             = NONE
	Semicanonical        = false
	Reference            = UHF
	Print Level          = 1

	IRREP	# MOs	# FZDC	# DOCC	# SOCC	# VIRT	# FZVR
	-----	-----	------	------	------	------	------
	 A1	   26	    4	    3	    0	    19	    0
	 A2	   5	    0	    0	    0	    5	    0
	 B1	   12	    1	    1	    1	    9	    0
	 B2	   12	    1	    1	    1	    9	    0
	Transforming integrals...
	IWL integrals will be deleted.
	(OO|OO)...
	Presorting SO-basis two-electron integrals.
	Sorting File: SO Ints (nn|nn) nbuckets = 1
	Constructing frozen core operators
	Starting AA/AB first half-transformation.
	Sorting AA/AB half-transformed integrals.
	Starting BB first half-transformation.
	Sorting BB half-transformed integrals.
	First half integral transformation complete.
	Starting AA second half-transformation.
	Starting AB second half-transformation.
	Starting BB second half-transformation.
	Two-electron integral transformation complete.
	(OO|OV)...
	Starting AA second half-transformation.
	Starting AB second half-transformation.
	Starting BB second half-transformation.
	Two-electron integral transformation complete.
	(OO|VV)...
	Starting AA second half-transformation.
	Starting AB second half-transformation.
	Starting BB second half-transformation.
	Two-electron integral transformation complete.
	(OV|OO)...
	Starting AA/AB first half-transformation.
	Sorting AA/AB half-transformed integrals.
	Starting BB first half-transformation.
	Sorting BB half-transformed integrals.
	First half integral transformation complete.
	Starting AA second half-transformation.
	Starting AB second half-transformation.
	Starting BB second half-transformation.
	Two-electron integral transformation complete.
	(OV|OV)...
	Starting AA second half-transformation.
	Starting AB second half-transformation.
	Starting BB second half-transformation.
	Two-electron integral transformation complete.
	(OV|VV)...
	Starting AA second half-transformation.
	Starting AB second half-transformation.
	Starting BB second half-transformation.
	Two-electron integral transformation complete.
	(VV|OO)...
	Starting AA/AB first half-transformation.
	Sorting AA/AB half-transformed integrals.
	Starting BB first half-transformation.
	Sorting BB half-transformed integrals.
	First half integral transformation complete.
	Starting AA second half-transformation.
	Starting AB second half-transformation.
	Starting BB second half-transformation.
	Two-electron integral transformation complete.
	(VV|OV)...
	Starting AA second half-transformation.
	Starting AB second half-transformation.
	Starting BB second half-transformation.
	Two-electron integral transformation complete.
	(VV|VV)...
	Starting AA second half-transformation.
	Starting AB second half-transformation.
	Starting BB second half-transformation.
	Two-electron integral transformation complete.
	Frozen core energy     =   -424.16554628060328

	Size of irrep 0 of <AB|CD> integrals:      0.064 (MW) /      0.512 (MB)
	Size of irrep 1 of <AB|CD> integrals:      0.031 (MW) /      0.248 (MB)
	Size of irrep 2 of <AB|CD> integrals:      0.047 (MW) /      0.373 (MB)
	Size of irrep 3 of <AB|CD> integrals:      0.047 (MW) /      0.373 (MB)
	Total:                                     0.188 (MW) /      1.506 (MB)

	Size of irrep 0 of <ab|cd> integrals:      0.073 (MW) /      0.588 (MB)
	Size of irrep 1 of <ab|cd> integrals:      0.038 (MW) /      0.304 (MB)
	Size of irrep 2 of <ab|cd> integrals:      0.058 (MW) /      0.461 (MB)
	Size of irrep 3 of <ab|cd> integrals:      0.058 (MW) /      0.461 (MB)
	Total:                                     0.227 (MW) /      1.813 (MB)

	Size of irrep 0 of <Ab|Cd> integrals:      0.320 (MW) /      2.563 (MB)
	Size of irrep 1 of <Ab|Cd> integrals:      0.137 (MW) /      1.095 (MB)
	Size of irrep 2 of <Ab|Cd> integrals:      0.208 (MW) /      1.663 (MB)
	Size of irrep 3 of <Ab|Cd> integrals:      0.208 (MW) /      1.663 (MB)
	Total:                                     0.873 (MW) /      6.985 (MB)

	Size of irrep 0 of <IA|BC> integrals:      0.051 (MW) /      0.408 (MB)
	Size of irrep 1 of <IA|BC> integrals:      0.018 (MW) /      0.144 (MB)
	Size of irrep 2 of <IA|BC> integrals:      0.032 (MW) /      0.259 (MB)
	Size of irrep 3 of <IA|BC> integrals:      0.032 (MW) /      0.259 (MB)
	Total:                                     0.134 (MW) /      1.070 (MB)

	Size of irrep 0 of <ia|bc> integrals:      0.045 (MW) /      0.361 (MB)
	Size of irrep 1 of <ia|bc> integrals:      0.014 (MW) /      0.109 (MB)
	Size of irrep 2 of <ia|bc> integrals:      0.026 (MW) /      0.207 (MB)
	Size of irrep 3 of <ia|bc> integrals:      0.026 (MW) /      0.207 (MB)
	Total:                                     0.111 (MW) /      0.885 (MB)

	Size of irrep 0 of <Ia|Bc> integrals:      0.055 (MW) /      0.439 (MB)
	Size of irrep 1 of <Ia|Bc> integrals:      0.020 (MW) /      0.163 (MB)
	Size of irrep 2 of <Ia|Bc> integrals:      0.036 (MW) /      0.285 (MB)
	Size of irrep 3 of <Ia|Bc> integrals:      0.036 (MW) /      0.285 (MB)
	Total:                                     0.146 (MW) /      1.171 (MB)

	Size of irrep 0 of <iA|bC> integrals:      0.042 (MW) /      0.340 (MB)
	Size of irrep 1 of <iA|bC> integrals:      0.012 (MW) /      0.098 (MB)
	Size of irrep 2 of <iA|bC> integrals:      0.023 (MW) /      0.186 (MB)
	Size of irrep 3 of <iA|bC> integrals:      0.023 (MW) /      0.186 (MB)
	Total:                                     0.101 (MW) /      0.809 (MB)

	Size of irrep 0 of tIjAb amplitudes:       0.007 (MW) /      0.059 (MB)
	Size of irrep 1 of tIjAb amplitudes:       0.001 (MW) /      0.012 (MB)
	Size of irrep 2 of tIjAb amplitudes:       0.004 (MW) /      0.033 (MB)
	Size of irrep 3 of tIjAb amplitudes:       0.004 (MW) /      0.033 (MB)
	Total:                                     0.017 (MW) /      0.136 (MB)

	Nuclear Rep. energy          =     40.93496682413490
	SCF energy                   =   -415.61997442942203
	One-electron energy          =    -60.02799119043638
	Two-electron (AA) energy     =      7.64561755671477
	Two-electron (BB) energy     =      4.11585664400785
	Two-electron (AB) energy     =     15.87712201676018
	Two-electron energy          =     27.63859621748281
	Reference energy             =   -415.61997442942197

*** tstop() called on n412-039.vsc4.prov at Tue Jan 26 18:34:40 2021
Module time:
	user time   =       0.19 seconds =       0.00 minutes
	system time =       0.35 seconds =       0.01 minutes
	total time  =          2 seconds =       0.03 minutes
Total time:
	user time   =      31.74 seconds =       0.53 minutes
	system time =       2.02 seconds =       0.03 minutes
	total time  =          6 seconds =       0.10 minutes
            **************************
            *                        *
            *        CCENERGY        *
            *                        *
            **************************

    Nuclear Rep. energy (wfn)     =   40.934966824134904
    SCF energy          (wfn)     = -415.619974429422030
    Reference energy    (file100) = -415.619974429421973

    Input parameters:
    -----------------
    Wave function   =     CCSD_T
    Reference wfn   =     UHF
    Brueckner       =     No
    Memory (Mbytes) =     250000.0
    Maxiter         =     50
    R_Convergence   =     1.0e-07
    E_Convergence   =     1.0e-06
    Restart         =     Yes
    DIIS            =     Yes
    AO Basis        =     NONE
    ABCD            =     NEW
    Cache Level     =     2
    Cache Type      =     LRU
    Print Level     =     1
    Num. of threads =     48
    # Amps to Print =     10
    Print MP2 Amps? =     No
    Analyze T2 Amps =     No
    Print Pair Ener =     No
    Local CC        =     No
    SCS-MP2         =     False
    SCSN-MP2        =     False
    SCS-CCSD        =     False

MP2 correlation energy -0.3071352545302932
                Solving CC Amplitude Equations
                ------------------------------
  Iter             Energy              RMS        T1Diag      D1Diag    New D1Diag    D2Diag
  ----     ---------------------    ---------   ----------  ----------  ----------   --------
     0        -0.307135254530293    0.000e+00    0.000000    0.000000    0.000000    0.000000
     1        -0.303102101611524    1.131e-01    0.026785    0.000000    0.000000    0.000000
     2        -0.314607276822730    4.143e-02    0.025669    0.000000    0.000000    0.000000
     3        -0.318637114650595    2.439e-02    0.032945    0.000000    0.000000    0.000000
     4        -0.318606418904664    7.814e-03    0.035665    0.000000    0.000000    0.000000
     5        -0.318527834215207    4.074e-03    0.036863    0.000000    0.000000    0.000000
     6        -0.318570524108248    1.491e-03    0.037308    0.000000    0.000000    0.000000
     7        -0.318557676692512    7.294e-04    0.037422    0.000000    0.000000    0.000000
     8        -0.318556001699361    2.431e-04    0.037441    0.000000    0.000000    0.000000
     9        -0.318561594817975    1.107e-04    0.037455    0.000000    0.000000    0.000000
    10        -0.318558112847232    4.679e-05    0.037458    0.000000    0.000000    0.000000
    11        -0.318557592347217    1.835e-05    0.037456    0.000000    0.000000    0.000000
    12        -0.318557511916333    8.848e-06    0.037457    0.000000    0.000000    0.000000
    13        -0.318557428567766    3.122e-06    0.037457    0.000000    0.000000    0.000000
    14        -0.318557491875452    1.611e-06    0.037457    0.000000    0.000000    0.000000
    15        -0.318557507370051    5.817e-07    0.037457    0.000000    0.000000    0.000000
    16        -0.318557495121849    2.261e-07    0.037457    0.000000    0.000000    0.000000
    17        -0.318557497382859    9.251e-08    0.037457    0.000000    0.000000    0.000000

    Iterations converged.

    Largest TIA Amplitudes:
              6  33        -0.0373734053
              4  24        -0.0373733950
              3  25        -0.0287250276
              5  34        -0.0287250045
              3  26        -0.0267454549
              5  35        -0.0267454370
              2   3         0.0216361891
              2   2         0.0212195500
              2   5        -0.0191032715
              2   1         0.0111751705

    Largest Tia Amplitudes:
              4  35         0.0429869066
              3  25         0.0429866647
              4  34        -0.0290577841
              3  24        -0.0290575644
              2   3        -0.0217923597
              1   3         0.0195648769
              3  31        -0.0170605757
              4  41        -0.0170605168
              1   5        -0.0164168157
              2   0         0.0115985038

    Largest TIJAB Amplitudes:
      6   4  19   4        -0.0341251920
      6   4  33  24        -0.0281813103
      6   4  35  26        -0.0194823397
      6   2  35   3        -0.0158363913
      4   2  26   3        -0.0158363862
      6   4  36  24         0.0144536874
      6   4  33  27         0.0144536832
      6   4  36  27        -0.0135196877
      5   4  19   4        -0.0130756344
      6   3  19   4        -0.0130756191

    Largest Tijab Amplitudes:
      4   3  35  25        -0.0272552623
      3   2  25   3        -0.0177890400
      4   2  35   3        -0.0177890099
      4   3  35  24         0.0169317528
      4   3  34  25         0.0169317513
      4   3  35  27         0.0146204507
      4   3  37  25         0.0146204494
      4   3  36  26        -0.0146031649
      4   3  35  26         0.0142106450
      4   3  36  25         0.0142106260

    Largest TIjAb Amplitudes:
      4   2  19  35         0.0299346110
      4   2   4  25         0.0299346027
      6   2   4  35        -0.0299346026
      6   2  19  25         0.0299345943
      2   2   3   3        -0.0297176725
      4   1  19  35        -0.0231041534
      4   1   4  25        -0.0231041493
      6   1   4  35         0.0231041428
      6   1  19  25        -0.0231041387
      6   2  35   3        -0.0221878015

    SCF energy       (wfn)                    = -415.619974429422030
    Reference energy (file100)                = -415.619974429421973

    Opposite-spin MP2 correlation energy      =   -0.220052335593556
    Same-spin MP2 correlation energy          =   -0.087082918936738
    Singles MP2 correlation energy            =   -0.000000000000000
    MP2 correlation energy                    =   -0.307135254530293
      * MP2 total energy                      = -415.927109683952267

    Opposite-spin CCSD correlation energy     =   -0.241204918309870
    Same-spin CCSD correlation energy         =   -0.077352579072989
    Singles CCSD correlation energy           =    0.000000000000000
    CCSD correlation energy                   =   -0.318557497382859
      * CCSD total energy                     = -415.938531926804842

            **************************

      * CCSD(T) total energy                     = -415.951750218552320
*** Psi4 exiting successfully. Buy a developer a beer!
