                               Psi4 1.4a3.dev88

  ==> Input File <==

--------------------------------------------------------------------------
# Any line starting with the # character is a comment line
memory 250000 mb
molecule molecule{
-1 3
P          0.0000000000        0.0000000000        0.5283745064
O          0.0000000000        0.0000000000       -1.0228974307
}

set {
  reference uhf
  basis aug-cc-pV(6+d)Z
  scf_type OUT_OF_CORE
  freeze_core true
}

energy('ccsd(t)')
--------------------------------------------------------------------------

    Molecular point group: c2v

    Geometry (in Angstrom), charge = -1, multiplicity = 3:

       Center              X                  Y                   Z               Mass
    ------------   -----------------  -----------------  -----------------  -----------------
         P            0.000000000000     0.000000000000     0.528276800035    30.973761998420
         O            0.000000000000     0.000000000000    -1.022995137065    15.994914619570

  Charge       = -1
  Multiplicity = 3
  Basis Set: AUG-CC-PV(6+D)Z
    Blend: AUG-CC-PV(6+D)Z

    Orbital Energies [Eh]
    ---------------------

    Alpha Occupied:

       1A1   -79.733087     2A1   -20.308495     3A1    -7.269768
       1B1    -5.170328     1B2    -5.170328     4A1    -5.158352
       5A1    -1.078281     6A1    -0.519623     2B2    -0.320482
       2B1    -0.320482     7A1    -0.288857     3B2    -0.075520
       3B1    -0.075520

    Alpha Virtual:

       8A1     0.158361     4B2     0.163626     4B1     0.163626
       9A1     0.163978     5B1     0.223389     5B2     0.223389
      10A1     0.230336    11A1     0.292444     1A2     0.292444
      12A1     0.293434     6B1     0.327177     6B2     0.327177
      13A1     0.332435    14A1     0.340708     7B1     0.389136
       7B2     0.389136    15A1     0.493619    16A1     0.504933
       2A2     0.504933     8B2     0.509821     8B1     0.509821
       9B1     0.535093     9B2     0.535093    17A1     0.535513
      18A1     0.558768     3A2     0.558768    19A1     0.581497
      10B2     0.597452    10B1     0.597452    20A1     0.645010
      11B1     0.647839    11B2     0.647839    21A1     0.650246
      22A1     0.653293     4A2     0.653293    12B1     0.762706
      12B2     0.762706    23A1     0.895792     5A2     0.895792
      13B2     0.902120    13B1     0.902120    24A1     0.917283
      25A1     0.979831    14B1     0.984652    14B2     0.984652
      26A1     0.992377     6A2     0.992377    15B1     1.041828
      15B2     1.041828    27A1     1.052255    16B2     1.111781
      16B1     1.111781    28A1     1.115501     7A2     1.115501
      29A1     1.131052    30A1     1.134776     8A2     1.134776
      17B1     1.175655    17B2     1.175655    18B2     1.207183
      18B1     1.207183    31A1     1.219439    32A1     1.222667
       9A2     1.222667    19B1     1.253686    19B2     1.253686
      33A1     1.272325    20B2     1.367981    20B1     1.367981
      34A1     1.380132    21B2     1.493224    21B1     1.493224
      35A1     1.658215    36A1     1.677543    10A2     1.677543
      37A1     1.834824    22B1     1.841372    22B2     1.841372
      11A2     1.844408    38A1     1.844408    39A1     1.970792
      12A2     1.970792    23B2     1.971047    23B1     1.971047
      24B2     1.988447    24B1     1.988447    40A1     2.010387
      25B2     2.014984    25B1     2.014984    13A2     2.025810
      41A1     2.025810    26B1     2.031459    26B2     2.031459
      42A1     2.088470    43A1     2.175078    14A2     2.175078
      27B1     2.197162    27B2     2.197162    44A1     2.211816
      15A2     2.211816    45A1     2.215399    28B1     2.258321
      28B2     2.258321    46A1     2.270495    29B1     2.367298
      29B2     2.367298    47A1     2.428456    16A2     2.428456
      30B1     2.442274    30B2     2.442274    48A1     2.498497
      17A2     2.498497    49A1     2.577979    31B2     2.631680
      31B1     2.631680    32B1     2.675710    32B2     2.675710
      50A1     2.752948    18A2     2.752948    51A1     2.771509
      33B2     3.016486    33B1     3.016486    52A1     3.049136
      19A2     3.049136    34B2     3.110079    34B1     3.110079
      53A1     3.120912    54A1     3.240716    35B2     3.298083
      35B1     3.298083    55A1     3.344809    36B2     3.533904
      36B1     3.533904    56A1     3.614514    20A2     3.614514
      37B2     3.639284    37B1     3.639284    21A2     3.644845
      57A1     3.644845    58A1     3.822585    22A2     3.822585
      59A1     3.830599    38B2     3.852977    38B1     3.852977
      23A2     3.862088    60A1     3.862088    39B1     3.889790
      39B2     3.889790    40B2     3.954511    40B1     3.954511
      24A2     3.962259    61A1     3.962259    62A1     3.968710
      63A1     4.025542    25A2     4.025542    41B2     4.055229
      41B1     4.055229    42B1     4.178452    42B2     4.178452
      64A1     4.199896    26A2     4.233025    65A1     4.233025
      27A2     4.299519    66A1     4.299519    43B2     4.310078
      43B1     4.310078    44B1     4.331449    44B2     4.331449
      67A1     4.410560    68A1     4.565743    45B2     4.575198
      45B1     4.575198    46B1     4.628430    46B2     4.628430
      28A2     4.729699    69A1     4.729699    47B2     4.816403
      47B1     4.816403    70A1     4.933855    29A2     5.178627
      71A1     5.178627    30A2     5.334745    72A1     5.334745
      48B1     5.347679    48B2     5.347679    73A1     5.354687
      49B2     5.616531    49B1     5.616531    50B2     5.648629
      50B1     5.648629    51B2     5.794224    51B1     5.794224
      31A2     5.805453    74A1     5.805453    75A1     5.815547
      32A2     5.815547    76A1     5.835812    77A1     5.891499
      52B2     6.039003    52B1     6.039003    78A1     6.192911
      33A2     6.192911    53B2     6.212356    53B1     6.212356
      79A1     6.426730    54B2     6.434897    54B1     6.434897
      34A2     6.608719    80A1     6.608719    55B2     6.823851
      55B1     6.823851    81A1     7.095312    82A1     7.197903
      56B1     7.280525    56B2     7.280525    35A2     7.357776
      83A1     7.357776    57B1     7.393778    57B2     7.393778
      36A2     7.422761    84A1     7.422761    58B2     7.587962
      58B1     7.587962    37A2     7.722763    85A1     7.722763
      86A1     7.754030    38A2     7.754030    59B2     7.766545
      59B1     7.766545    87A1     7.807713    39A2     7.807713
      88A1     7.816626    60B1     7.999796    60B2     7.999796
      89A1     8.098801    61B2     8.102705    61B1     8.102705
      62B2     8.134633    62B1     8.134633    90A1     8.158307
      40A2     8.158307    41A2     8.244225    91A1     8.244225
      63B2     8.258149    63B1     8.258149    92A1     8.300427
      64B1     8.372610    64B2     8.372610    93A1     8.554002
      42A2     9.004914    94A1     9.004914    65B1     9.015133
      65B2     9.015133    95A1     9.243298    66B2     9.287373
      66B1     9.287373    43A2     9.392444    96A1     9.392444
      67B2     9.667278    67B1     9.667278    97A1     9.669231
      44A2     9.669231    68B1     9.714229    68B2     9.714229
      98A1     9.759049    45A2     9.799876    99A1     9.799876
      69B1     9.831205    69B2     9.831205    46A2    10.081592
     100A1    10.081592    70B2    10.941874    70B1    10.941874
      71B2    10.981298    71B1    10.981298   101A1    11.007756
      72B1    11.149537    72B2    11.149537   102A1    11.359833
      47A2    11.410744   103A1    11.410744   104A1    11.598378
      48A2    11.703986   105A1    11.703986    73B2    11.831713
      73B1    11.831713    74B2    11.852411    74B1    11.852411
      49A2    11.875197   106A1    11.875197   107A1    12.009138
      75B2    12.341467    75B1    12.341467    76B2    12.797864
      76B1    12.797864   108A1    13.112490    50A2    13.355881
     109A1    13.355881    51A2    13.504437   110A1    13.504437
      77B2    13.677406    77B1    13.677406    52A2    14.184815
     111A1    14.184815    78B2    14.496762    78B1    14.496762
      79B2    14.626408    79B1    14.626408   112A1    14.835547
     113A1    15.157514    53A2    15.502487   114A1    15.502487
      80B2    16.545880    80B1    16.545880   115A1    17.141101
     116A1    21.970684    54A2    23.043782   117A1    23.043782
      81B2    23.062781    81B1    23.062781    55A2    23.204782
     118A1    23.204782    82B2    23.543521    82B1    23.543521
      83B2    23.635353    83B1    23.635353    56A2    23.783414
     119A1    23.783414   120A1    23.805863    84B2    23.870971
      84B1    23.870971   121A1    24.799005    57A2    26.203267
     122A1    26.203267    85B2    26.627309    85B1    26.627309
     123A1    26.779782    86B1    27.138435    86B2    27.138435
     124A1    27.263227    58A2    27.263227    87B2    27.341094
      87B1    27.341094    88B2    27.490691    88B1    27.490691
      59A2    27.534660   125A1    27.534660    89B2    27.699719
      89B1    27.699719   126A1    27.798943    90B1    28.900569
      90B2    28.900569    60A2    29.343256   127A1    29.343256
     128A1    29.851405    91B2    30.214592    91B1    30.214592
     129A1    31.821285    61A2    31.821285    92B2    32.001594
      92B1    32.001594    62A2    32.464153   130A1    32.464153
      93B2    32.548516    93B1    32.548516   131A1    32.648810
     132A1    32.987386    63A2    35.253247   133A1    35.253247
      94B2    36.129184    94B1    36.129184   134A1    36.699751
     135A1   103.303163   136A1   215.264582

    Beta Occupied:

       1A1   -79.723956     2A1   -20.282581     3A1    -7.260181
       4A1    -5.156158     1B2    -5.145275     1B1    -5.145275
       5A1    -1.008855     6A1    -0.415367     7A1    -0.218172
       2B1    -0.205660     2B2    -0.205660

    Beta Virtual:

       3B1     0.160171     3B2     0.160171     8A1     0.160490
       9A1     0.164755     4B1     0.223838     4B2     0.223838
      10A1     0.233593     5B1     0.288701     5B2     0.288701
      11A1     0.298666     1A2     0.304610    12A1     0.304610
      13A1     0.334874     6B1     0.337323     6B2     0.337323
      14A1     0.353150     7B2     0.438079     7B1     0.438079
      15A1     0.504214     2A2     0.513697    16A1     0.513697
       8B1     0.518328     8B2     0.518328    17A1     0.540819
       9B1     0.547393     9B2     0.547393     3A2     0.591466
      18A1     0.591466    19A1     0.596609    10B1     0.607137
      10B2     0.607137    20A1     0.650654    21A1     0.661753
      11B1     0.664939    11B2     0.664939     4A2     0.680843
      22A1     0.680843    12B2     0.792521    12B1     0.792521
      23A1     0.904392     5A2     0.904392    13B1     0.907289
      13B2     0.907289    24A1     0.932798    25A1     0.982710
      14B1     0.990951    14B2     0.990951     6A2     1.003090
      26A1     1.003090    27A1     1.057055    15B1     1.085923
      15B2     1.085923     7A2     1.129172    28A1     1.129172
      16B1     1.132246    16B2     1.132246    29A1     1.135020
       8A2     1.176784    30A1     1.176784    17B1     1.185067
      17B2     1.185067    18B1     1.218050    18B2     1.218050
      31A1     1.226711     9A2     1.231999    32A1     1.231999
      19B2     1.263351    19B1     1.263351    33A1     1.290624
      34A1     1.390730    20B1     1.393395    20B2     1.393395
      21B1     1.505443    21B2     1.505443    35A1     1.670019
      10A2     1.690877    36A1     1.690877    11A2     1.851921
      37A1     1.851921    22B1     1.853684    22B2     1.853684
      38A1     1.856036    23B2     1.983686    23B1     1.983686
      39A1     1.993460    12A2     1.993460    24B1     1.997550
      24B2     1.997550    40A1     2.016158    25B1     2.022694
      25B2     2.022694    13A2     2.037613    41A1     2.037613
      26B1     2.039599    26B2     2.039599    42A1     2.096505
      14A2     2.190015    43A1     2.190015    27B1     2.209488
      27B2     2.209488    44A1     2.218755    15A2     2.230913
      45A1     2.230913    46A1     2.277374    28B1     2.298201
      28B2     2.298201    29B1     2.387096    29B2     2.387096
      16A2     2.444071    47A1     2.444071    30B1     2.471976
      30B2     2.471976    17A2     2.498918    48A1     2.498918
      49A1     2.584737    31B2     2.635197    31B1     2.635197
      32B1     2.681878    32B2     2.681878    18A2     2.756352
      50A1     2.756352    51A1     2.775178    33B2     3.019212
      33B1     3.019212    19A2     3.077392    52A1     3.077392
      34B1     3.127350    34B2     3.127350    53A1     3.139521
      54A1     3.249444    35B1     3.316185    35B2     3.316185
      55A1     3.360557    36B1     3.543057    36B2     3.543057
      20A2     3.626284    56A1     3.626284    37B2     3.649506
      37B1     3.649506    57A1     3.659954    21A2     3.659954
      58A1     3.829199    22A2     3.829199    59A1     3.841549
      38B2     3.869579    38B1     3.869579    23A2     3.889637
      60A1     3.889637    39B1     3.904387    39B2     3.904387
      40B1     3.976188    40B2     3.976188    61A1     3.977000
      24A2     3.978915    62A1     3.978915    25A2     4.036730
      63A1     4.036730    41B1     4.068074    41B2     4.068074
      42B1     4.186774    42B2     4.186774    64A1     4.205719
      26A2     4.243482    65A1     4.243482    27A2     4.310559
      66A1     4.310559    43B2     4.319938    43B1     4.319938
      44B1     4.339083    44B2     4.339083    67A1     4.421474
      68A1     4.572020    45B2     4.599533    45B1     4.599533
      46B1     4.643123    46B2     4.643123    28A2     4.746118
      69A1     4.746118    47B2     4.816984    47B1     4.816984
      70A1     4.942869    29A2     5.190344    71A1     5.190344
      30A2     5.336605    72A1     5.336605    48B1     5.357085
      48B2     5.357085    73A1     5.366720    49B1     5.632066
      49B2     5.632066    50B2     5.659499    50B1     5.659499
      51B2     5.797394    51B1     5.797394    31A2     5.810851
      74A1     5.810851    32A2     5.821920    75A1     5.821920
      76A1     5.839888    77A1     5.899182    52B2     6.046697
      52B1     6.046697    33A2     6.212735    78A1     6.212735
      53B1     6.224414    53B2     6.224414    79A1     6.437055
      54B2     6.442275    54B1     6.442275    34A2     6.625869
      80A1     6.625869    55B1     6.839467    55B2     6.839467
      81A1     7.106977    82A1     7.203526    56B1     7.291682
      56B2     7.291682    35A2     7.377139    83A1     7.377139
      57B1     7.405048    57B2     7.405048    36A2     7.433249
      84A1     7.433249    58B1     7.606856    58B2     7.606856
      37A2     7.734298    85A1     7.734298    38A2     7.772351
      86A1     7.772351    59B2     7.780179    59B1     7.780179
      87A1     7.816614    39A2     7.816614    88A1     7.822632
      60B1     8.005412    60B2     8.005412    61B2     8.110372
      61B1     8.110372    89A1     8.111571    62B2     8.154549
      62B1     8.154549    90A1     8.173418    40A2     8.173418
      41A2     8.252899    91A1     8.252899    63B2     8.269430
      63B1     8.269430    92A1     8.307714    64B1     8.382090
      64B2     8.382090    93A1     8.564945    42A2     9.014431
      94A1     9.014431    65B1     9.028158    65B2     9.028158
      95A1     9.249432    66B2     9.297022    66B1     9.297022
      43A2     9.401280    96A1     9.401280    97A1     9.671689
      44A2     9.671689    67B1     9.680786    67B2     9.680786
      68B2     9.715873    68B1     9.715873    98A1     9.764919
      45A2     9.808801    99A1     9.808801    69B1     9.837539
      69B2     9.837539    46A2    10.083671   100A1    10.083671
      70B2    10.944756    70B1    10.944756    71B1    10.987830
      71B2    10.987830   101A1    11.017091    72B1    11.157370
      72B2    11.157370   102A1    11.366712    47A2    11.417035
     103A1    11.417035   104A1    11.603193    48A2    11.707365
     105A1    11.707365    73B2    11.834535    73B1    11.834535
      74B2    11.858639    74B1    11.858639    49A2    11.880796
     106A1    11.880796   107A1    12.014472    75B2    12.347817
      75B1    12.347817    76B2    12.822856    76B1    12.822856
     108A1    13.120599    50A2    13.373162   109A1    13.373162
      51A2    13.521517   110A1    13.521517    77B2    13.690850
      77B1    13.690850    52A2    14.203097   111A1    14.203097
      78B2    14.510930    78B1    14.510930    79B2    14.636731
      79B1    14.636731   112A1    14.845567   113A1    15.168765
      53A2    15.525833   114A1    15.525833    80B2    16.561046
      80B1    16.561046   115A1    17.150780   116A1    21.986668
      54A2    23.053533   117A1    23.053533    81B2    23.071012
      81B1    23.071012    55A2    23.211847   118A1    23.211847
      82B2    23.549638    82B1    23.549638    83B2    23.655693
      83B1    23.655693    56A2    23.788739   119A1    23.788739
     120A1    23.810730    84B2    23.876708    84B1    23.876708
     121A1    24.808992    57A2    26.217357   122A1    26.217357
      85B2    26.635170    85B1    26.635170   123A1    26.785669
      86B2    27.153799    86B1    27.153799   124A1    27.276038
      58A2    27.276038    87B2    27.354060    87B1    27.354060
      88B2    27.501487    88B1    27.501487    59A2    27.543961
     125A1    27.543961    89B2    27.708027    89B1    27.708027
     126A1    27.806605    90B2    28.923470    90B1    28.923470
      60A2    29.360365   127A1    29.360365   128A1    29.860078
      91B2    30.227985    91B1    30.227985   129A1    31.840703
      61A2    31.840703    92B2    32.017248    92B1    32.017248
      62A2    32.477252   130A1    32.477252    93B2    32.559921
      93B1    32.559921   131A1    32.659599   132A1    32.992352
      63A2    35.273071   133A1    35.273071    94B2    36.141764
      94B1    36.141764   134A1    36.709148   135A1   103.310199
     136A1   215.268043

    Final Occupation by Irrep:
             A1    A2    B1    B2
    DOCC [     7,    0,    2,    2 ]
    SOCC [     0,    0,    1,    1 ]

  @UHF Final Energy:  -415.66405265414977

   => Energetics <=

    Nuclear Repulsion Energy =             40.9349668241349036
    One-Electron Energy =                -662.9417786075350705
    Two-Electron Energy =                 206.3427591292503962
    Total Energy =                       -415.6640526541497707

  UHF NO Occupations:
  HONO-2 :    7 A1 1.9906849
  HONO-1 :    3 B2 1.0000000
  HONO-0 :    3 B1 1.0000000
  LUNO+0 :    8 A1 0.0093151
  LUNO+1 :    4 B2 0.0064182
  LUNO+2 :    4 B1 0.0064182
  LUNO+3 :    9 A1 0.0005474

Computation Completed

Properties will be evaluated at   0.000000,   0.000000,   0.000000 [a0]

Properties computed using the SCF density matrix

  Nuclear Dipole Moment: [e a0]
     X:     0.0000      Y:     0.0000      Z:    -0.4910

  Electronic Dipole Moment: [e a0]
     X:     0.0000      Y:     0.0000      Z:     0.7424

  Dipole Moment: [e a0]
     X:     0.0000      Y:     0.0000      Z:     0.2515     Total:     0.2515

  Dipole Moment: [D]
     X:     0.0000      Y:     0.0000      Z:     0.6392     Total:     0.6392

*** tstop() called on n412-047.vsc4.prov at Sun Jan 24 16:57:22 2021
Module time:
	user time   =    1111.48 seconds =      18.52 minutes
	system time =      94.26 seconds =       1.57 minutes
	total time  =       1271 seconds =      21.18 minutes
Total time:
	user time   =    1111.48 seconds =      18.52 minutes
	system time =      94.26 seconds =       1.57 minutes
	total time  =       1271 seconds =      21.18 minutes

*** tstart() called on n412-047.vsc4.prov
*** at Sun Jan 24 16:57:22 2021

	Wfn Parameters:
	--------------------
	Wavefunction         = CCSD_T
	Number of irreps     = 4
	Number of MOs        = 387
	Number of active MOs = 381
	AO-Basis             = NONE
	Semicanonical        = false
	Reference            = UHF
	Print Level          = 1

	IRREP	# MOs	# FZDC	# DOCC	# SOCC	# VIRT	# FZVR
	-----	-----	------	------	------	------	------
	 A1	   136	    4	    3	    0	    129	    0
	 A2	   63	    0	    0	    0	    63	    0
	 B1	   94	    1	    1	    1	    91	    0
	 B2	   94	    1	    1	    1	    91	    0
	Transforming integrals...
	IWL integrals will be deleted.
	(OO|OO)...
	Presorting SO-basis two-electron integrals.
	Sorting File: SO Ints (nn|nn) nbuckets = 1
	Constructing frozen core operators
	Starting AA/AB first half-transformation.
	Sorting AA/AB half-transformed integrals.
	Starting BB first half-transformation.
	Sorting BB half-transformed integrals.
	First half integral transformation complete.
	Starting AA second half-transformation.
	Starting AB second half-transformation.
	Starting BB second half-transformation.
	Two-electron integral transformation complete.
	(OO|OV)...
	Starting AA second half-transformation.
	Starting AB second half-transformation.
	Starting BB second half-transformation.
	Two-electron integral transformation complete.
	(OO|VV)...
	Starting AA second half-transformation.
	Starting AB second half-transformation.
	Starting BB second half-transformation.
	Two-electron integral transformation complete.
	(OV|OO)...
	Starting AA/AB first half-transformation.
	Sorting AA/AB half-transformed integrals.
	Starting BB first half-transformation.
	Sorting BB half-transformed integrals.
	First half integral transformation complete.
	Starting AA second half-transformation.
	Starting AB second half-transformation.
	Starting BB second half-transformation.
	Two-electron integral transformation complete.
	(OV|OV)...
	Starting AA second half-transformation.
	Starting AB second half-transformation.
	Starting BB second half-transformation.
	Two-electron integral transformation complete.
	(OV|VV)...
	Starting AA second half-transformation.
	Starting AB second half-transformation.
	Starting BB second half-transformation.
	Two-electron integral transformation complete.
	(VV|OO)...
	Starting AA/AB first half-transformation.
	Sorting AA/AB half-transformed integrals.
	Starting BB first half-transformation.
	Sorting BB half-transformed integrals.

      * MP2 total energy                      = -416.078112778397156
      * CCSD total energy                     = -416.077663968512752
      * CCSD(T) total energy                     = -416.100135207005906
*** Psi4 exiting successfully. Buy a developer a beer!
