                               Psi4 1.2a1.dev938

  ==> Input File <==

--------------------------------------------------------------------------
# Any line starting with the # character is a comment line
memory 250000 mb
molecule molecule{
1 2
O          0.0000000000        0.0000000000        0.5838312771
O          0.0000000000        0.0000000000       -0.5838312771
}

set {
  reference uhf
  basis aug-cc-pv(t+d)z
  scf_type OUT_OF_CORE
  freeze_core true
}

energy('ccsd')
--------------------------------------------------------------------------

    Molecular point group: d2h

    Geometry (in Angstrom), charge = 1, multiplicity = 2:

       Center              X                  Y                   Z               Mass
    ------------   -----------------  -----------------  -----------------  -----------------
           O          0.000000000000     0.000000000000     0.583831277100    15.994914619560
           O          0.000000000000     0.000000000000    -0.583831277100    15.994914619560

  Charge       = 1
  Multiplicity = 2
  Basis Set: AUG-CC-PV(T+D)Z
    Blend: AUG-CC-PV(T+D)Z

    Orbital Energies (a.u.)
    -----------------------

    Alpha Occupied:

       1Ag   -21.293258     1B1u  -21.292057     2Ag    -2.206043
       2B1u   -1.595891     1B3u   -1.327393     3Ag    -1.233278
       1B2u   -1.142828     1B2g   -1.011911

    Alpha Virtual:

       1B3g   -0.416053     4Ag    -0.095286     3B1u   -0.085999
       2B3u   -0.064443     2B2u   -0.063336     5Ag    -0.005649
       2B2g    0.008566     2B3g    0.013046     4B1u    0.075636
       5B1u    0.163696     6Ag     0.254054     1B1g    0.254210
       7Ag     0.375074     3B2u    0.458582     3B3u    0.458905
       6B1u    0.505561     1Au     0.505614     3B2g    0.512342
       4B3u    0.526167     3B3g    0.533684     4B2u    0.551784
       7B1u    0.565300     8Ag     0.631958     8B1u    0.679292
       4B2g    0.843114     4B3g    0.850676     9Ag     1.209639
       2B1g    1.439716    10Ag     1.440252     5B3u    1.490210
       5B2u    1.490374     6B3u    1.503392     6B2u    1.518795
       2Au     1.780655     9B1u    1.780894    11Ag     1.817268
       3B1g    1.837745    12Ag     1.837889     5B2g    1.898327
       5B3g    1.898329     6B2g    1.965961    10B1u    1.966925
       6B3g    1.968616    11B1u    2.223149     7B2u    2.340419
       7B3u    2.344494    12B1u    2.488450     3Au     2.488919
      13B1u    2.578345     7B2g    2.656446     7B3g    2.674839
      13Ag     3.090817     8B3u    3.598231     8B2u    3.639377
      14Ag     4.045506     8B2g    4.555203     8B3g    4.578605
       9B2u    5.459842     9B3u    5.472075    15Ag     5.528931
       4B1g    5.560954    16Ag     5.562500    10B2u    5.814388
      10B3u    5.814388    14B1u    5.816615     9B2g    6.038105
       9B3g    6.038106    15B1u    6.166681     5B1g    6.372872
      17Ag     6.373015     4Au     6.506480    16B1u    6.506643
       5Au     6.570488    17B1u    6.570626    11B3u    6.737680
      11B2u    6.742677    10B2g    6.954840    10B3g    6.960025
      11B3g    7.434858    11B2g    7.446424    18Ag     7.575830
      18B1u    7.888618    19Ag    12.471977    19B1u   14.823619

    Beta Occupied:

       1Ag   -21.263820     1B1u  -21.262287     2Ag    -2.143411
       2B1u   -1.488553     3Ag    -1.199821     1B2u   -1.122505
       1B3u   -1.069065

    Beta Virtual:

       1B3g   -0.389479     1B2g   -0.332741     4Ag    -0.093781
       3B1u   -0.081575     2B2u   -0.062685     2B3u   -0.057393
       5Ag    -0.006364     2B3g    0.014192     2B2g    0.018863
       4B1u    0.101043     5B1u    0.178108     6Ag     0.255150
       1B1g    0.255226     7Ag     0.373869     3B2u    0.458093
       3B3u    0.469141     6B1u    0.512192     1Au     0.512423
       3B3g    0.537496     3B2g    0.551935     4B2u    0.556544
       7B1u    0.574397     4B3u    0.579773     8Ag     0.642344
       8B1u    0.685502     4B3g    0.853265     4B2g    0.867366
       9Ag     1.211076     2B1g    1.454181    10Ag     1.454381
       5B2u    1.493099     5B3u    1.493117     6B2u    1.520732
       6B3u    1.549035     9B1u    1.818655     2Au     1.819147
      11Ag     1.826616     3B1g    1.855280    12Ag     1.860573
       5B3g    1.905921     5B2g    1.905948     6B3g    1.969212
      10B1u    1.981958     6B2g    1.988843    11B1u    2.233424
       7B2u    2.340815     7B3u    2.358317    12B1u    2.500976
       3Au     2.502456    13B1u    2.590615     7B3g    2.682744
       7B2g    2.716909    13Ag     3.119179     8B2u    3.652769
       8B3u    3.699334    14Ag     4.063823     8B3g    4.589557
       8B2g    4.633283     9B2u    5.463570     9B3u    5.494075
      15Ag     5.535859     4B1g    5.577014    16Ag     5.583868
      14B1u    5.834589    10B2u    5.845353    10B3u    5.845379
       9B3g    6.070451     9B2g    6.070456    15B1u    6.185347
       5B1g    6.437476    17Ag     6.437777     4Au     6.544803
      16B1u    6.545843     5Au     6.617208    17B1u    6.618188
      11B2u    6.751111    11B3u    6.794160    10B3g    6.968004
      10B2g    7.008996    11B3g    7.440264    11B2g    7.476717
      18Ag     7.589871    18B1u    7.903257    19Ag    12.495946
      19B1u   14.847591

    Final Occupation by Irrep:
             Ag   B1g   B2g   B3g    Au   B1u   B2u   B3u
    DOCC [     3,    0,    0,    0,    0,    2,    1,    1 ]
    SOCC [     0,    0,    1,    0,    0,    0,    0,    0 ]

  Energy converged.

  @UHF Final Energy:  -149.20729629474334

   => Energetics <=

    Nuclear Repulsion Energy =             29.0043910613914555
    One-Electron Energy =                -255.7712535454626845
    Two-Electron Energy =                  77.5595661893278958
    PCM Polarization Energy =               0.0000000000000000
    Total Energy =                       -149.2072962947433439

    Alert: EFP and PCM quantities not currently incorporated into SCF psivars.
  UHF NO Occupations:
  HONO-2 :    2B1u 1.9987798
  HONO-1 :    1B3u 1.9943964
  HONO-0 :    1B2g 1.0000000
  LUNO+0 :    2B3u 0.0056036
  LUNO+1 :    3B1u 0.0012202
  LUNO+2 :    4 Ag 0.0005016
  LUNO+3 :    2B2u 0.0000860

Properties will be evaluated at   0.000000,   0.000000,   0.000000 Bohr

Properties computed using the SCF density matrix

  Nuclear Dipole Moment: (a.u.)
     X:     0.0000      Y:     0.0000      Z:     0.0000

  Electronic Dipole Moment: (a.u.)
     X:     0.0000      Y:     0.0000      Z:     0.0000

  Dipole Moment: (a.u.)
     X:     0.0000      Y:     0.0000      Z:     0.0000     Total:     0.0000

  Dipole Moment: (Debye)
     X:     0.0000      Y:     0.0000      Z:     0.0000     Total:     0.0000

*** tstop() called on cqc05 at Thu Aug 20 20:03:55 2020
Module time:
	user time   =       1.28 seconds =       0.02 minutes
	system time =       0.06 seconds =       0.00 minutes
	total time  =          1 seconds =       0.02 minutes
Total time:
	user time   =       1.28 seconds =       0.02 minutes
	system time =       0.06 seconds =       0.00 minutes
	total time  =          1 seconds =       0.02 minutes

*** tstart() called on cqc05
*** at Thu Aug 20 20:03:55 2020

	Wfn Parameters:
	--------------------
	Wavefunction         = CCSD
	Number of irreps     = 8
	Number of MOs        = 92
	Number of active MOs = 90
	AO-Basis             = NONE
	Semicanonical        = false
	Reference            = UHF
	Print Level          = 1

	IRREP	# MOs	# FZDC	# DOCC	# SOCC	# VIRT	# FZVR
	-----	-----	------	------	------	------	------
	 Ag	   19	    1	    2	    0	    16	    0
	 B1g	   5	    0	    0	    0	    5	    0
	 B2g	   11	    0	    0	    1	    10	    0
	 B3g	   11	    0	    0	    0	    11	    0
	 Au	   5	    0	    0	    0	    5	    0
	 B1u	   19	    1	    1	    0	    17	    0
	 B2u	   11	    0	    1	    0	    10	    0
	 B3u	   11	    0	    1	    0	    10	    0
	Transforming integrals...
	IWL integrals will be deleted.
	(OO|OO)...
	Presorting SO-basis two-electron integrals.
	Sorting File: SO Ints (nn|nn) nbuckets = 1
	Transforming the one-electron integrals and constructing Fock matrices
	Starting AA/AB first half-transformation.
	Sorting AA/AB half-transformed integrals.
	Starting BB first half-transformation.
	Sorting BB half-transformed integrals.
	First half integral transformation complete.
	Starting AA second half-transformation.
	Starting AB second half-transformation.
	Starting BB second half-transformation.
	Two-electron integral transformation complete.
	(OO|OV)...
	Starting AA second half-transformation.
	Starting AB second half-transformation.
	Starting BB second half-transformation.
	Two-electron integral transformation complete.
	(OO|VV)...
	Starting AA second half-transformation.
	Starting AB second half-transformation.
	Starting BB second half-transformation.
	Two-electron integral transformation complete.
	(OV|OO)...
	Starting AA/AB first half-transformation.
	Sorting AA/AB half-transformed integrals.
	Starting BB first half-transformation.
	Sorting BB half-transformed integrals.
	First half integral transformation complete.
	Starting AA second half-transformation.
	Starting AB second half-transformation.
	Starting BB second half-transformation.
	Two-electron integral transformation complete.
	(OV|OV)...
	Starting AA second half-transformation.
	Starting AB second half-transformation.
	Starting BB second half-transformation.
	Two-electron integral transformation complete.
	(OV|VV)...
	Starting AA second half-transformation.
	Starting AB second half-transformation.
	Starting BB second half-transformation.
	Two-electron integral transformation complete.
	(VV|OO)...
	Starting AA/AB first half-transformation.
	Sorting AA/AB half-transformed integrals.
	Starting BB first half-transformation.
	Sorting BB half-transformed integrals.
	First half integral transformation complete.
	Starting AA second half-transformation.
	Starting AB second half-transformation.
	Starting BB second half-transformation.
	Two-electron integral transformation complete.
	(VV|OV)...
	Starting AA second half-transformation.
	Starting AB second half-transformation.
	Starting BB second half-transformation.
	Two-electron integral transformation complete.
	(VV|VV)...
	Starting AA second half-transformation.
	Starting AB second half-transformation.
	Starting BB second half-transformation.
	Two-electron integral transformation complete.
	Frozen core energy     =   -130.90315367510124

	Size of irrep 0 of <AB|CD> integrals:      0.217 (MW) /      1.737 (MB)
	Size of irrep 1 of <AB|CD> integrals:      0.141 (MW) /      1.125 (MB)
	Size of irrep 2 of <AB|CD> integrals:      0.189 (MW) /      1.514 (MB)
	Size of irrep 3 of <AB|CD> integrals:      0.199 (MW) /      1.591 (MB)
	Size of irrep 4 of <AB|CD> integrals:      0.141 (MW) /      1.125 (MB)
	Size of irrep 5 of <AB|CD> integrals:      0.257 (MW) /      2.056 (MB)
	Size of irrep 6 of <AB|CD> integrals:      0.200 (MW) /      1.598 (MB)
	Size of irrep 7 of <AB|CD> integrals:      0.189 (MW) /      1.514 (MB)
	Total:                                     1.533 (MW) /     12.261 (MB)

	Size of irrep 0 of <ab|cd> integrals:      0.227 (MW) /      1.813 (MB)
	Size of irrep 1 of <ab|cd> integrals:      0.149 (MW) /      1.192 (MB)
	Size of irrep 2 of <ab|cd> integrals:      0.203 (MW) /      1.627 (MB)
	Size of irrep 3 of <ab|cd> integrals:      0.203 (MW) /      1.627 (MB)
	Size of irrep 4 of <ab|cd> integrals:      0.148 (MW) /      1.186 (MB)
	Size of irrep 5 of <ab|cd> integrals:      0.267 (MW) /      2.138 (MB)
	Size of irrep 6 of <ab|cd> integrals:      0.204 (MW) /      1.634 (MB)
	Size of irrep 7 of <ab|cd> integrals:      0.204 (MW) /      1.634 (MB)
	Total:                                     1.606 (MW) /     12.852 (MB)

	Size of irrep 0 of <Ab|Cd> integrals:      1.053 (MW) /      8.421 (MB)
	Size of irrep 1 of <Ab|Cd> integrals:      0.579 (MW) /      4.633 (MB)
	Size of irrep 2 of <Ab|Cd> integrals:      0.785 (MW) /      6.280 (MB)
	Size of irrep 3 of <Ab|Cd> integrals:      0.805 (MW) /      6.437 (MB)
	Size of irrep 4 of <Ab|Cd> integrals:      0.578 (MW) /      4.621 (MB)
	Size of irrep 5 of <Ab|Cd> integrals:      1.049 (MW) /      8.389 (MB)
	Size of irrep 6 of <Ab|Cd> integrals:      0.808 (MW) /      6.466 (MB)
	Size of irrep 7 of <Ab|Cd> integrals:      0.787 (MW) /      6.294 (MB)
	Total:                                     6.443 (MW) /     51.540 (MB)

	Size of irrep 0 of <IA|BC> integrals:      0.080 (MW) /      0.642 (MB)
	Size of irrep 1 of <IA|BC> integrals:      0.035 (MW) /      0.276 (MB)
	Size of irrep 2 of <IA|BC> integrals:      0.059 (MW) /      0.473 (MB)
	Size of irrep 3 of <IA|BC> integrals:      0.053 (MW) /      0.421 (MB)
	Size of irrep 4 of <IA|BC> integrals:      0.035 (MW) /      0.276 (MB)
	Size of irrep 5 of <IA|BC> integrals:      0.082 (MW) /      0.657 (MB)
	Size of irrep 6 of <IA|BC> integrals:      0.051 (MW) /      0.408 (MB)
	Size of irrep 7 of <IA|BC> integrals:      0.059 (MW) /      0.473 (MB)
	Total:                                     0.453 (MW) /      3.626 (MB)

	Size of irrep 0 of <ia|bc> integrals:      0.072 (MW) /      0.572 (MB)
	Size of irrep 1 of <ia|bc> integrals:      0.027 (MW) /      0.216 (MB)
	Size of irrep 2 of <ia|bc> integrals:      0.049 (MW) /      0.390 (MB)
	Size of irrep 3 of <ia|bc> integrals:      0.049 (MW) /      0.390 (MB)
	Size of irrep 4 of <ia|bc> integrals:      0.028 (MW) /      0.228 (MB)
	Size of irrep 5 of <ia|bc> integrals:      0.074 (MW) /      0.596 (MB)
	Size of irrep 6 of <ia|bc> integrals:      0.047 (MW) /      0.376 (MB)
	Size of irrep 7 of <ia|bc> integrals:      0.047 (MW) /      0.376 (MB)
	Total:                                     0.393 (MW) /      3.144 (MB)

	Size of irrep 0 of <Ia|Bc> integrals:      0.082 (MW) /      0.657 (MB)
	Size of irrep 1 of <Ia|Bc> integrals:      0.035 (MW) /      0.280 (MB)
	Size of irrep 2 of <Ia|Bc> integrals:      0.062 (MW) /      0.496 (MB)
	Size of irrep 3 of <Ia|Bc> integrals:      0.053 (MW) /      0.423 (MB)
	Size of irrep 4 of <Ia|Bc> integrals:      0.036 (MW) /      0.286 (MB)
	Size of irrep 5 of <Ia|Bc> integrals:      0.084 (MW) /      0.672 (MB)
	Size of irrep 6 of <Ia|Bc> integrals:      0.051 (MW) /      0.410 (MB)
	Size of irrep 7 of <Ia|Bc> integrals:      0.061 (MW) /      0.490 (MB)
	Total:                                     0.464 (MW) /      3.713 (MB)

	Size of irrep 0 of <iA|bC> integrals:      0.071 (MW) /      0.566 (MB)
	Size of irrep 1 of <iA|bC> integrals:      0.027 (MW) /      0.213 (MB)
	Size of irrep 2 of <iA|bC> integrals:      0.046 (MW) /      0.369 (MB)
	Size of irrep 3 of <iA|bC> integrals:      0.048 (MW) /      0.388 (MB)
	Size of irrep 4 of <iA|bC> integrals:      0.027 (MW) /      0.219 (MB)
	Size of irrep 5 of <iA|bC> integrals:      0.073 (MW) /      0.582 (MB)
	Size of irrep 6 of <iA|bC> integrals:      0.047 (MW) /      0.374 (MB)
	Size of irrep 7 of <iA|bC> integrals:      0.045 (MW) /      0.362 (MB)
	Total:                                     0.384 (MW) /      3.072 (MB)

	Size of irrep 0 of tIjAb amplitudes:       0.007 (MW) /      0.057 (MB)
	Size of irrep 1 of tIjAb amplitudes:       0.002 (MW) /      0.012 (MB)
	Size of irrep 2 of tIjAb amplitudes:       0.004 (MW) /      0.028 (MB)
	Size of irrep 3 of tIjAb amplitudes:       0.002 (MW) /      0.014 (MB)
	Size of irrep 4 of tIjAb amplitudes:       0.001 (MW) /      0.006 (MB)
	Size of irrep 5 of tIjAb amplitudes:       0.005 (MW) /      0.041 (MB)
	Size of irrep 6 of tIjAb amplitudes:       0.004 (MW) /      0.029 (MB)
	Size of irrep 7 of tIjAb amplitudes:       0.004 (MW) /      0.035 (MB)
	Total:                                     0.028 (MW) /      0.224 (MB)

	Nuclear Rep. energy          =     29.00439106139146
	SCF energy                   =   -149.20729629474334
	One-electron energy          =    -79.07636780031361
	Two-electron (AA) energy     =      7.97483119705065
	Two-electron (BB) energy     =      5.21000166769613
	Two-electron (AB) energy     =     18.58300125453335
	Two-electron energy          =     31.76783411928013
	Reference energy             =   -149.20729629474326

*** tstop() called on cqc05 at Thu Aug 20 20:03:56 2020
Module time:
	user time   =       0.77 seconds =       0.01 minutes
	system time =       0.45 seconds =       0.01 minutes
	total time  =          1 seconds =       0.02 minutes
Total time:
	user time   =       2.05 seconds =       0.03 minutes
	system time =       0.51 seconds =       0.01 minutes
	total time  =          2 seconds =       0.03 minutes

*** tstart() called on cqc05
*** at Thu Aug 20 20:03:56 2020

            **************************
            *                        *
            *        CCENERGY        *
            *                        *
            **************************

    Nuclear Rep. energy (wfn)     =   29.004391061391456
    SCF energy          (wfn)     = -149.207296294743344
    Reference energy    (file100) = -149.207296294743259

    Input parameters:
    -----------------
    Wave function   =     CCSD
    Reference wfn   =     UHF
    Brueckner       =     No
    Memory (Mbytes) =     250000.0
    Maxiter         =     50
    R_Convergence   =     1.0e-07
    E_Convergence   =     1.0e-06
    Restart         =     Yes
    DIIS            =     Yes
    AO Basis        =     NONE
    ABCD            =     NEW
    Cache Level     =     2
    Cache Type      =     LRU
    Print Level     =     1
    Num. of threads =     4
    # Amps to Print =     10
    Print MP2 Amps? =     No
    Analyze T2 Amps =     No
    Print Pair Ener =     No
    Local CC        =     No
    SCS-MP2         =     False
    SCSN-MP2        =     False
    SCS-CCSD        =     False

MP2 correlation energy -0.4840128794883019
                Solving CC Amplitude Equations
                ------------------------------
  Iter             Energy              RMS        T1Diag      D1Diag    New D1Diag    D2Diag
  ----     ---------------------    ---------   ----------  ----------  ----------   --------
     0        -0.484012879488302    0.000e+00    0.000000    0.000000    0.000000    0.000000
     1        -0.434841679617273    1.164e-01    0.021441    0.000000    0.000000    0.000000
     2        -0.460203714348253    4.321e-02    0.019719    0.000000    0.000000    0.000000
     3        -0.463617342618247    1.288e-02    0.022713    0.000000    0.000000    0.000000
     4        -0.463902950739453    3.279e-03    0.022920    0.000000    0.000000    0.000000
     5        -0.463909221669197    9.300e-04    0.022892    0.000000    0.000000    0.000000
     6        -0.463900611525052    2.730e-04    0.022849    0.000000    0.000000    0.000000
     7        -0.463913756513695    7.797e-05    0.022845    0.000000    0.000000    0.000000
     8        -0.463913070228951    2.436e-05    0.022844    0.000000    0.000000    0.000000
     9        -0.463911748289818    8.457e-06    0.022844    0.000000    0.000000    0.000000
    10        -0.463911978633665    3.060e-06    0.022844    0.000000    0.000000    0.000000
    11        -0.463911892751403    1.090e-06    0.022845    0.000000    0.000000    0.000000
    12        -0.463911975648218    2.969e-07    0.022845    0.000000    0.000000    0.000000
    13        -0.463911958288088    8.085e-08    0.022845    0.000000    0.000000    0.000000
    13        -0.463911958288088    8.085e-08    0.022845    0.000000    0.000000    0.000000

    Iterations converged.

    CCSD corr. energy   =   -0.463911958288088
    PPL corr. energy    =    0.121220931149267
    OS PPL corr. energy =    0.098110261512865
    SS PPL corr. energy =    0.023110669636401
    Largest TIA Amplitudes:
              4  66         0.0271351346
              5  76        -0.0179189806
              4  64         0.0143541031
              4  68         0.0120969663
              5  74        -0.0117684724
              4  70         0.0099274795
              3  49        -0.0091607023

      * MP2 total energy                      = -149.691309174231549
      * CCSD total energy                     = -149.671208253031352
*** Psi4 exiting successfully. Buy a developer a beer!
