                               Psi4 1.2a1.dev938

  ==> Input File <==

--------------------------------------------------------------------------
# Any line starting with the # character is a comment line
memory 250000 mb
molecule molecule{
1 2
O          0.0000000000        0.0000000000        0.5838312771
O          0.0000000000        0.0000000000       -0.5838312771
}

set {
  reference uhf
  basis aug-cc-pv(d+d)z
  scf_type OUT_OF_CORE
  freeze_core true
}

energy('ccsd')
--------------------------------------------------------------------------

    Molecular point group: d2h

    Geometry (in Angstrom), charge = 1, multiplicity = 2:

       Center              X                  Y                   Z               Mass
    ------------   -----------------  -----------------  -----------------  -----------------
           O          0.000000000000     0.000000000000     0.583831277100    15.994914619560
           O          0.000000000000     0.000000000000    -0.583831277100    15.994914619560

  Charge       = 1
  Multiplicity = 2
  Basis Set: AUG-CC-PV(D+D)Z
    Blend: AUG-CC-PV(D+D)Z

    Orbital Energies (a.u.)
    -----------------------

    Alpha Occupied:

       1Ag   -21.302458     1B1u  -21.301268     2Ag    -2.216506
       2B1u   -1.600732     1B3u   -1.329061     3Ag    -1.237867
       1B2u   -1.145750     1B2g   -1.012600

    Alpha Virtual:

       1B3g   -0.420172     3B1u   -0.079892     4Ag    -0.079552
       2B3u   -0.049761     2B2u   -0.048143     5Ag     0.013136
       2B2g    0.029161     2B3g    0.035388     4B1u    0.097622
       5B1u    0.192511     6Ag     0.458364     1B1g    0.458419
       7Ag     0.639193     3B3u    0.687321     3B2u    0.691074
       1Au     0.813568     6B1u    0.813720     4B3u    0.856450
       7B1u    0.876323     3B2g    0.879913     4B2u    0.909683
       3B3g    0.923794     8B1u    1.012518     8Ag     1.142271
       4B2g    1.321906     4B3g    1.325547     9Ag     2.026694
       5B3u    2.627479     5B2u    2.636602    10Ag     2.875446
       2B1g    2.878560    11Ag     2.914970     9B1u    3.110940
       2Au     3.111034    10B1u    3.220100     5B2g    3.592237
       5B3g    3.609039    11B1u    3.806861

    Beta Occupied:

       1Ag   -21.272896     1B1u  -21.271374     2Ag    -2.152847
       2B1u   -1.493590     3Ag    -1.203064     1B2u   -1.124435
       1B3u   -1.071141

    Beta Virtual:

       1B3g   -0.393041     1B2g   -0.336975     4Ag    -0.077443
       3B1u   -0.074028     2B2u   -0.047210     2B3u   -0.040517
       5Ag     0.012078     2B3g    0.037001     2B2g    0.043295
       4B1u    0.132250     5B1u    0.199942     6Ag     0.463737
       1B1g    0.463957     7Ag     0.640477     3B2u    0.690635
       3B3u    0.709215     6B1u    0.831293     1Au     0.831977
       7B1u    0.885403     4B2u    0.919887     3B3g    0.932036
       4B3u    0.955223     3B2g    0.959743     8B1u    1.024734
       8Ag     1.160162     4B3g    1.327997     4B2g    1.348422
       9Ag     2.034787     5B2u    2.642187     5B3u    2.675615
      10Ag     2.915298     2B1g    2.932661    11Ag     2.963384
       9B1u    3.174713     2Au     3.175031    10B1u    3.237753
       5B3g    3.617667     5B2g    3.658300    11B1u    3.829181

    Final Occupation by Irrep:
             Ag   B1g   B2g   B3g    Au   B1u   B2u   B3u
    DOCC [     3,    0,    0,    0,    0,    2,    1,    1 ]
    SOCC [     0,    0,    1,    0,    0,    0,    0,    0 ]

  Energy converged.

  @UHF Final Energy:  -149.16888994744215

   => Energetics <=

    Nuclear Repulsion Energy =             29.0043910613914555
    One-Electron Energy =                -255.6109711558522406
    Two-Electron Energy =                  77.4376901470186141
    PCM Polarization Energy =               0.0000000000000000
    Total Energy =                       -149.1688899474421532

    Alert: EFP and PCM quantities not currently incorporated into SCF psivars.
  UHF NO Occupations:
  HONO-2 :    2B1u 1.9988552
  HONO-1 :    1B3u 1.9944712
  HONO-0 :    1B2g 1.0000000
  LUNO+0 :    2B3u 0.0055288
  LUNO+1 :    3B1u 0.0011448
  LUNO+2 :    4 Ag 0.0004417
  LUNO+3 :    2B2u 0.0000762

Properties will be evaluated at   0.000000,   0.000000,   0.000000 Bohr

Properties computed using the SCF density matrix

  Nuclear Dipole Moment: (a.u.)
     X:     0.0000      Y:     0.0000      Z:     0.0000

  Electronic Dipole Moment: (a.u.)
     X:     0.0000      Y:     0.0000      Z:     0.0000

  Dipole Moment: (a.u.)
     X:     0.0000      Y:     0.0000      Z:     0.0000     Total:     0.0000

  Dipole Moment: (Debye)
     X:     0.0000      Y:     0.0000      Z:     0.0000     Total:     0.0000

*** tstop() called on cqc05 at Thu Aug 20 19:54:49 2020
Module time:
	user time   =       0.39 seconds =       0.01 minutes
	system time =       0.02 seconds =       0.00 minutes
	total time  =          0 seconds =       0.00 minutes
Total time:
	user time   =       0.39 seconds =       0.01 minutes
	system time =       0.02 seconds =       0.00 minutes
	total time  =          0 seconds =       0.00 minutes

*** tstart() called on cqc05
*** at Thu Aug 20 19:54:49 2020

	Wfn Parameters:
	--------------------
	Wavefunction         = CCSD
	Number of irreps     = 8
	Number of MOs        = 46
	Number of active MOs = 44
	AO-Basis             = NONE
	Semicanonical        = false
	Reference            = UHF
	Print Level          = 1

	IRREP	# MOs	# FZDC	# DOCC	# SOCC	# VIRT	# FZVR
	-----	-----	------	------	------	------	------
	 Ag	   11	    1	    2	    0	    8	    0
	 B1g	   2	    0	    0	    0	    2	    0
	 B2g	   5	    0	    0	    1	    4	    0
	 B3g	   5	    0	    0	    0	    5	    0
	 Au	   2	    0	    0	    0	    2	    0
	 B1u	   11	    1	    1	    0	    9	    0
	 B2u	   5	    0	    1	    0	    4	    0
	 B3u	   5	    0	    1	    0	    4	    0
	Transforming integrals...
	IWL integrals will be deleted.
	(OO|OO)...
	Presorting SO-basis two-electron integrals.
	Sorting File: SO Ints (nn|nn) nbuckets = 1
	Transforming the one-electron integrals and constructing Fock matrices
	Starting AA/AB first half-transformation.
	Sorting AA/AB half-transformed integrals.
	Starting BB first half-transformation.
	Sorting BB half-transformed integrals.
	First half integral transformation complete.
	Starting AA second half-transformation.
	Starting AB second half-transformation.
	Starting BB second half-transformation.
	Two-electron integral transformation complete.
	(OO|OV)...
	Starting AA second half-transformation.
	Starting AB second half-transformation.
	Starting BB second half-transformation.
	Two-electron integral transformation complete.
	(OO|VV)...
	Starting AA second half-transformation.
	Starting AB second half-transformation.
	Starting BB second half-transformation.
	Two-electron integral transformation complete.
	(OV|OO)...
	Starting AA/AB first half-transformation.
	Sorting AA/AB half-transformed integrals.
	Starting BB first half-transformation.
	Sorting BB half-transformed integrals.
	First half integral transformation complete.
	Starting AA second half-transformation.
	Starting AB second half-transformation.
	Starting BB second half-transformation.
	Two-electron integral transformation complete.
	(OV|OV)...
	Starting AA second half-transformation.
	Starting AB second half-transformation.
	Starting BB second half-transformation.
	Two-electron integral transformation complete.
	(OV|VV)...
	Starting AA second half-transformation.
	Starting AB second half-transformation.
	Starting BB second half-transformation.
	Two-electron integral transformation complete.
	(VV|OO)...
	Starting AA/AB first half-transformation.
	Sorting AA/AB half-transformed integrals.
	Starting BB first half-transformation.
	Sorting BB half-transformed integrals.
	First half integral transformation complete.
	Starting AA second half-transformation.
	Starting AB second half-transformation.
	Starting BB second half-transformation.
	Two-electron integral transformation complete.
	(VV|OV)...
	Starting AA second half-transformation.
	Starting AB second half-transformation.
	Starting BB second half-transformation.
	Two-electron integral transformation complete.
	(VV|VV)...
	Starting AA second half-transformation.
	Starting AB second half-transformation.
	Starting BB second half-transformation.
	Two-electron integral transformation complete.
	Frozen core energy     =   -130.90157596131161

	Size of irrep 0 of <AB|CD> integrals:      0.009 (MW) /      0.071 (MB)
	Size of irrep 1 of <AB|CD> integrals:      0.005 (MW) /      0.039 (MB)
	Size of irrep 2 of <AB|CD> integrals:      0.007 (MW) /      0.059 (MB)
	Size of irrep 3 of <AB|CD> integrals:      0.008 (MW) /      0.068 (MB)
	Size of irrep 4 of <AB|CD> integrals:      0.005 (MW) /      0.039 (MB)
	Size of irrep 5 of <AB|CD> integrals:      0.013 (MW) /      0.100 (MB)
	Size of irrep 6 of <AB|CD> integrals:      0.009 (MW) /      0.069 (MB)
	Size of irrep 7 of <AB|CD> integrals:      0.007 (MW) /      0.059 (MB)
	Total:                                     0.063 (MW) /      0.505 (MB)

	Size of irrep 0 of <ab|cd> integrals:      0.010 (MW) /      0.077 (MB)
	Size of irrep 1 of <ab|cd> integrals:      0.006 (MW) /      0.045 (MB)
	Size of irrep 2 of <ab|cd> integrals:      0.009 (MW) /      0.071 (MB)
	Size of irrep 3 of <ab|cd> integrals:      0.009 (MW) /      0.071 (MB)
	Size of irrep 4 of <ab|cd> integrals:      0.005 (MW) /      0.044 (MB)
	Size of irrep 5 of <ab|cd> integrals:      0.013 (MW) /      0.108 (MB)
	Size of irrep 6 of <ab|cd> integrals:      0.009 (MW) /      0.072 (MB)
	Size of irrep 7 of <ab|cd> integrals:      0.009 (MW) /      0.072 (MB)
	Total:                                     0.070 (MW) /      0.559 (MB)

	Size of irrep 0 of <Ab|Cd> integrals:      0.053 (MW) /      0.423 (MB)
	Size of irrep 1 of <Ab|Cd> integrals:      0.021 (MW) /      0.168 (MB)
	Size of irrep 2 of <Ab|Cd> integrals:      0.032 (MW) /      0.259 (MB)
	Size of irrep 3 of <Ab|Cd> integrals:      0.035 (MW) /      0.277 (MB)
	Size of irrep 4 of <Ab|Cd> integrals:      0.021 (MW) /      0.166 (MB)
	Size of irrep 5 of <Ab|Cd> integrals:      0.052 (MW) /      0.416 (MB)
	Size of irrep 6 of <Ab|Cd> integrals:      0.035 (MW) /      0.283 (MB)
	Size of irrep 7 of <Ab|Cd> integrals:      0.033 (MW) /      0.262 (MB)
	Total:                                     0.282 (MW) /      2.254 (MB)

	Size of irrep 0 of <IA|BC> integrals:      0.008 (MW) /      0.067 (MB)
	Size of irrep 1 of <IA|BC> integrals:      0.003 (MW) /      0.021 (MB)
	Size of irrep 2 of <IA|BC> integrals:      0.005 (MW) /      0.043 (MB)
	Size of irrep 3 of <IA|BC> integrals:      0.005 (MW) /      0.040 (MB)
	Size of irrep 4 of <IA|BC> integrals:      0.003 (MW) /      0.021 (MB)
	Size of irrep 5 of <IA|BC> integrals:      0.009 (MW) /      0.070 (MB)
	Size of irrep 6 of <IA|BC> integrals:      0.005 (MW) /      0.037 (MB)
	Size of irrep 7 of <IA|BC> integrals:      0.005 (MW) /      0.043 (MB)
	Total:                                     0.043 (MW) /      0.342 (MB)

	Size of irrep 0 of <ia|bc> integrals:      0.008 (MW) /      0.062 (MB)
	Size of irrep 1 of <ia|bc> integrals:      0.002 (MW) /      0.017 (MB)
	Size of irrep 2 of <ia|bc> integrals:      0.005 (MW) /      0.038 (MB)
	Size of irrep 3 of <ia|bc> integrals:      0.005 (MW) /      0.038 (MB)
	Size of irrep 4 of <ia|bc> integrals:      0.002 (MW) /      0.019 (MB)
	Size of irrep 5 of <ia|bc> integrals:      0.008 (MW) /      0.067 (MB)
	Size of irrep 6 of <ia|bc> integrals:      0.004 (MW) /      0.035 (MB)
	Size of irrep 7 of <ia|bc> integrals:      0.004 (MW) /      0.035 (MB)
	Total:                                     0.039 (MW) /      0.310 (MB)

	Size of irrep 0 of <Ia|Bc> integrals:      0.009 (MW) /      0.070 (MB)
	Size of irrep 1 of <Ia|Bc> integrals:      0.003 (MW) /      0.022 (MB)
	Size of irrep 2 of <Ia|Bc> integrals:      0.006 (MW) /      0.048 (MB)
	Size of irrep 3 of <Ia|Bc> integrals:      0.005 (MW) /      0.040 (MB)
	Size of irrep 4 of <Ia|Bc> integrals:      0.003 (MW) /      0.023 (MB)
	Size of irrep 5 of <Ia|Bc> integrals:      0.009 (MW) /      0.073 (MB)
	Size of irrep 6 of <Ia|Bc> integrals:      0.005 (MW) /      0.038 (MB)
	Size of irrep 7 of <Ia|Bc> integrals:      0.006 (MW) /      0.046 (MB)
	Total:                                     0.045 (MW) /      0.360 (MB)

	Size of irrep 0 of <iA|bC> integrals:      0.008 (MW) /      0.061 (MB)
	Size of irrep 1 of <iA|bC> integrals:      0.002 (MW) /      0.016 (MB)
	Size of irrep 2 of <iA|bC> integrals:      0.004 (MW) /      0.033 (MB)
	Size of irrep 3 of <iA|bC> integrals:      0.005 (MW) /      0.037 (MB)
	Size of irrep 4 of <iA|bC> integrals:      0.002 (MW) /      0.017 (MB)
	Size of irrep 5 of <iA|bC> integrals:      0.008 (MW) /      0.064 (MB)
	Size of irrep 6 of <iA|bC> integrals:      0.004 (MW) /      0.035 (MB)
	Size of irrep 7 of <iA|bC> integrals:      0.004 (MW) /      0.032 (MB)
	Total:                                     0.037 (MW) /      0.295 (MB)

	Size of irrep 0 of tIjAb amplitudes:       0.002 (MW) /      0.013 (MB)
	Size of irrep 1 of tIjAb amplitudes:       0.000 (MW) /      0.002 (MB)
	Size of irrep 2 of tIjAb amplitudes:       0.001 (MW) /      0.006 (MB)
	Size of irrep 3 of tIjAb amplitudes:       0.000 (MW) /      0.003 (MB)
	Size of irrep 4 of tIjAb amplitudes:       0.000 (MW) /      0.001 (MB)
	Size of irrep 5 of tIjAb amplitudes:       0.001 (MW) /      0.009 (MB)
	Size of irrep 6 of tIjAb amplitudes:       0.001 (MW) /      0.006 (MB)
	Size of irrep 7 of tIjAb amplitudes:       0.001 (MW) /      0.007 (MB)
	Total:                                     0.006 (MW) /      0.047 (MB)

	Nuclear Rep. energy          =     29.00439106139146
	SCF energy                   =   -149.16888994744215
	One-electron energy          =    -78.95581519740159
	Two-electron (AA) energy     =      7.95780284645794
	Two-electron (BB) energy     =      5.19587758214117
	Two-electron (AB) energy     =     18.53042972128034
	Two-electron energy          =     31.68411014987946
	Reference energy             =   -149.16888994744230

*** tstop() called on cqc05 at Thu Aug 20 19:54:50 2020
Module time:
	user time   =       0.15 seconds =       0.00 minutes
	system time =       0.08 seconds =       0.00 minutes
	total time  =          1 seconds =       0.02 minutes
Total time:
	user time   =       0.54 seconds =       0.01 minutes
	system time =       0.10 seconds =       0.00 minutes
	total time  =          1 seconds =       0.02 minutes

*** tstart() called on cqc05
*** at Thu Aug 20 19:54:50 2020

            **************************
            *                        *
            *        CCENERGY        *
            *                        *
            **************************

    Nuclear Rep. energy (wfn)     =   29.004391061391456
    SCF energy          (wfn)     = -149.168889947442153
    Reference energy    (file100) = -149.168889947442295

    Input parameters:
    -----------------
    Wave function   =     CCSD
    Reference wfn   =     UHF
    Brueckner       =     No
    Memory (Mbytes) =     250000.0
    Maxiter         =     50
    R_Convergence   =     1.0e-07
    E_Convergence   =     1.0e-06
    Restart         =     Yes
    DIIS            =     Yes
    AO Basis        =     NONE
    ABCD            =     NEW
    Cache Level     =     2
    Cache Type      =     LRU
    Print Level     =     1
    Num. of threads =     4
    # Amps to Print =     10
    Print MP2 Amps? =     No
    Analyze T2 Amps =     No
    Print Pair Ener =     No
    Local CC        =     No
    SCS-MP2         =     False
    SCSN-MP2        =     False
    SCS-CCSD        =     False

MP2 correlation energy -0.4088861819910799
                Solving CC Amplitude Equations
                ------------------------------
  Iter             Energy              RMS        T1Diag      D1Diag    New D1Diag    D2Diag
  ----     ---------------------    ---------   ----------  ----------  ----------   --------
     0        -0.408886181991080    0.000e+00    0.000000    0.000000    0.000000    0.000000
     1        -0.368333523909976    1.099e-01    0.020145    0.000000    0.000000    0.000000
     2        -0.390117406032667    3.870e-02    0.019284    0.000000    0.000000    0.000000
     3        -0.393748107662324    1.338e-02    0.022266    0.000000    0.000000    0.000000
     4        -0.394126626623901    3.613e-03    0.022471    0.000000    0.000000    0.000000
     5        -0.394113957038530    9.403e-04    0.022419    0.000000    0.000000    0.000000
     6        -0.394114189135533    2.758e-04    0.022378    0.000000    0.000000    0.000000
     7        -0.394126705833733    7.741e-05    0.022375    0.000000    0.000000    0.000000
     8        -0.394124138162172    2.391e-05    0.022375    0.000000    0.000000    0.000000
     9        -0.394123393267374    8.821e-06    0.022375    0.000000    0.000000    0.000000
    10        -0.394123708867964    3.365e-06    0.022375    0.000000    0.000000    0.000000
    11        -0.394123549066426    1.142e-06    0.022375    0.000000    0.000000    0.000000
    12        -0.394123651580740    3.389e-07    0.022375    0.000000    0.000000    0.000000
    13        -0.394123630820089    9.667e-08    0.022375    0.000000    0.000000    0.000000
    13        -0.394123630820089    9.667e-08    0.022375    0.000000    0.000000    0.000000

    Iterations converged.

    CCSD corr. energy   =   -0.394123630820089
    PPL corr. energy    =    0.102665077147892
    OS PPL corr. energy =    0.082582178536800
    SS PPL corr. energy =    0.020082898611092
    Largest TIA Amplitudes:
              4  32         0.0289725472
              5  36        -0.0178768256
              5  34        -0.0154600033
              4  30         0.0144623429
              2  10        -0.0125962015
              2  11        -0.0096513796
              3  22         0.0093652252
              1   0         0.0085571318
              3  23        -0.0084372249
              5  35         0.0077640759

    Largest Tia Amplitudes:
              3  33         0.0297910494
              4  37         0.0275366816
              2  23         0.0191578681
              3  31         0.0151102313
              2  24        -0.0141163159
              4  35         0.0136521135
              4  36        -0.0081422649
              1   0         0.0077432180
              3  32        -0.0071401572
              4  38         0.0055914184

    Largest TIJAB Amplitudes:
      4   1  22  14        -0.0439889460
      4   1  23  14         0.0216554434
      4   2  36  14         0.0201945840
      4   1  21  14        -0.0140407517
      2   1  36  22         0.0140020298
      5   4  36  32        -0.0125739710
      5   4   8   2         0.0125242546
      2   1  35  22        -0.0123836504
      4   2  35  14        -0.0120303937
      4   1  25  14        -0.0119265043

    Largest Tijab Amplitudes:
      4   3  15  10         0.0926912809
      4   1  23  10        -0.0466894576

      * MP2 total energy                      = -149.577776129433374
      * CCSD total energy                     = -149.563013578262371
*** Psi4 exiting successfully. Buy a developer a beer!
