                               Psi4 1.4a3.dev88

  ==> Input File <==

--------------------------------------------------------------------------
# Any line starting with the # character is a comment line
memory 250000 mb
molecule molecule{
0 3
P          0.0000000000        0.0000000000        0.0446409825
H          0.0000000000        0.0000000000       -1.3718069306
}

set {
  reference uhf
  basis aug-cc-pV(d+d)Z
  scf_type OUT_OF_CORE
  freeze_core true
}

energy('ccsd(t)')
--------------------------------------------------------------------------

    Molecular point group: c2v

    Geometry (in Angstrom), charge = 0, multiplicity = 3:

       Center              X                  Y                   Z               Mass
    ------------   -----------------  -----------------  -----------------  -----------------
         P            0.000000000000     0.000000000000     0.044636048308    30.973761998420
         H            0.000000000000     0.000000000000    -1.371811864792     1.007825032230

  Charge       = 0
  Multiplicity = 3
  Basis Set: AUG-CC-PV(D+D)Z
    Blend: AUG-CC-PV(D+D)Z

    Orbital Energies [Eh]
    ---------------------

    Alpha Occupied:

       1A1   -79.974131     2A1    -7.515611     1B2    -5.416946
       1B1    -5.416946     3A1    -5.402321     4A1    -0.853066
       5A1    -0.476836     2B2    -0.385793     2B1    -0.385793

    Alpha Virtual:

       6A1     0.041168     7A1     0.094928     3B2     0.101496
       3B1     0.101496     8A1     0.151936     9A1     0.194396
      10A1     0.259023     1A2     0.259023     4B2     0.260447
       4B1     0.260447    11A1     0.402349     5B2     0.483624
       5B1     0.483624    12A1     0.538770     6B2     0.690534
       6B1     0.690534    13A1     0.734638    14A1     0.761915
      15A1     0.822003     2A2     0.822003     7B2     0.832940
       7B1     0.832940    16A1     1.109497    17A1     1.173510
       8B1     1.887179     8B2     1.887179    18A1     2.280526
      19A1     4.325537     3A2     4.325537     9B2     4.361329
       9B1     4.361329    20A1     4.434255

    Beta Occupied:

       1A1   -79.960869     2A1    -7.499974     3A1    -5.395326
       1B1    -5.381603     1B2    -5.381603     4A1    -0.705003
       5A1    -0.435184

    Beta Virtual:

       2B1     0.026872     2B2     0.026872     6A1     0.044695
       7A1     0.099014     3B1     0.145501     3B2     0.145501
       8A1     0.168205     9A1     0.218745     4B1     0.298576
       4B2     0.298576    10A1     0.333237     1A2     0.333237
      11A1     0.417696     5B2     0.496543     5B1     0.496543
      12A1     0.562601    13A1     0.743736     6B1     0.770532
       6B2     0.770532    14A1     0.776725     7B1     0.883424
       7B2     0.883424     2A2     0.921224    15A1     0.921224
      16A1     1.126961    17A1     1.205717     8B1     1.892977
       8B2     1.892977    18A1     2.288593     3A2     4.340565
      19A1     4.340565     9B2     4.369838     9B1     4.369838
      20A1     4.440429

    Final Occupation by Irrep:
             A1    A2    B1    B2
    DOCC [     5,    0,    1,    1 ]
    SOCC [     0,    0,    1,    1 ]

  @UHF Final Energy:  -341.29009017357930

   => Energetics <=

    Nuclear Repulsion Energy =              5.6039181438573724
    One-Electron Energy =                -483.2010125503547897
    Two-Electron Energy =                 136.3070042329181888
    Total Energy =                       -341.2900901735792445

  UHF NO Occupations:
  HONO-2 :    5 A1 1.9876035
  HONO-1 :    2 B1 1.0000000
  HONO-0 :    2 B2 1.0000000
  LUNO+0 :    6 A1 0.0123965
  LUNO+1 :    7 A1 0.0007547
  LUNO+2 :    3 B2 0.0000007
  LUNO+3 :    3 B1 0.0000007

Computation Completed

Properties will be evaluated at   0.000000,   0.000000,   0.000000 [a0]

Properties computed using the SCF density matrix

  Nuclear Dipole Moment: [e a0]
     X:     0.0000      Y:     0.0000      Z:    -1.3271

  Electronic Dipole Moment: [e a0]
     X:     0.0000      Y:     0.0000      Z:     1.1150

  Dipole Moment: [e a0]
     X:     0.0000      Y:     0.0000      Z:    -0.2121     Total:     0.2121

  Dipole Moment: [D]
     X:     0.0000      Y:     0.0000      Z:    -0.5391     Total:     0.5391

*** tstop() called on n412-039.vsc4.prov at Tue Jan 26 18:33:40 2021
Module time:
	user time   =      15.73 seconds =       0.26 minutes
	system time =       1.62 seconds =       0.03 minutes
	total time  =          2 seconds =       0.03 minutes
Total time:
	user time   =      15.73 seconds =       0.26 minutes
	system time =       1.62 seconds =       0.03 minutes
	total time  =          2 seconds =       0.03 minutes

*** tstart() called on n412-039.vsc4.prov
*** at Tue Jan 26 18:33:40 2021

	Wfn Parameters:
	--------------------
	Wavefunction         = CCSD_T
	Number of irreps     = 4
	Number of MOs        = 41
	Number of active MOs = 36
	AO-Basis             = NONE
	Semicanonical        = false
	Reference            = UHF
	Print Level          = 1

	IRREP	# MOs	# FZDC	# DOCC	# SOCC	# VIRT	# FZVR
	-----	-----	------	------	------	------	------
	 A1	   20	    3	    2	    0	    15	    0
	 A2	   3	    0	    0	    0	    3	    0
	 B1	   9	    1	    0	    1	    7	    0
	 B2	   9	    1	    0	    1	    7	    0
	Transforming integrals...
	IWL integrals will be deleted.
	(OO|OO)...
	Presorting SO-basis two-electron integrals.
	Sorting File: SO Ints (nn|nn) nbuckets = 1
	Constructing frozen core operators
	Starting AA/AB first half-transformation.
	Sorting AA/AB half-transformed integrals.
	Starting BB first half-transformation.
	Sorting BB half-transformed integrals.
	First half integral transformation complete.
	Starting AA second half-transformation.
	Starting AB second half-transformation.
	Starting BB second half-transformation.
	Two-electron integral transformation complete.
	(OO|OV)...
	Starting AA second half-transformation.
	Starting AB second half-transformation.
	Starting BB second half-transformation.
	Two-electron integral transformation complete.
	(OO|VV)...
	Starting AA second half-transformation.
	Starting AB second half-transformation.
	Starting BB second half-transformation.
	Two-electron integral transformation complete.
	(OV|OO)...
	Starting AA/AB first half-transformation.
	Sorting AA/AB half-transformed integrals.
	Starting BB first half-transformation.
	Sorting BB half-transformed integrals.
	First half integral transformation complete.
	Starting AA second half-transformation.
	Starting AB second half-transformation.
	Starting BB second half-transformation.
	Two-electron integral transformation complete.
	(OV|OV)...
	Starting AA second half-transformation.
	Starting AB second half-transformation.
	Starting BB second half-transformation.
	Two-electron integral transformation complete.
	(OV|VV)...
	Starting AA second half-transformation.
	Starting AB second half-transformation.
	Starting BB second half-transformation.
	Two-electron integral transformation complete.
	(VV|OO)...
	Starting AA/AB first half-transformation.
	Sorting AA/AB half-transformed integrals.
	Starting BB first half-transformation.
	Sorting BB half-transformed integrals.
	First half integral transformation complete.
	Starting AA second half-transformation.
	Starting AB second half-transformation.
	Starting BB second half-transformation.
	Two-electron integral transformation complete.
	(VV|OV)...
	Starting AA second half-transformation.
	Starting AB second half-transformation.
	Starting BB second half-transformation.
	Two-electron integral transformation complete.
	(VV|VV)...
	Starting AA second half-transformation.
	Starting AB second half-transformation.
	Starting BB second half-transformation.
	Two-electron integral transformation complete.
	Frozen core energy     =   -338.09236322005995

	Size of irrep 0 of <AB|CD> integrals:      0.022 (MW) /      0.180 (MB)
	Size of irrep 1 of <AB|CD> integrals:      0.009 (MW) /      0.071 (MB)
	Size of irrep 2 of <AB|CD> integrals:      0.016 (MW) /      0.127 (MB)
	Size of irrep 3 of <AB|CD> integrals:      0.016 (MW) /      0.127 (MB)
	Total:                                     0.063 (MW) /      0.505 (MB)

	Size of irrep 0 of <ab|cd> integrals:      0.027 (MW) /      0.215 (MB)
	Size of irrep 1 of <ab|cd> integrals:      0.012 (MW) /      0.095 (MB)
	Size of irrep 2 of <ab|cd> integrals:      0.021 (MW) /      0.166 (MB)
	Size of irrep 3 of <ab|cd> integrals:      0.021 (MW) /      0.166 (MB)
	Total:                                     0.080 (MW) /      0.642 (MB)

	Size of irrep 0 of <Ab|Cd> integrals:      0.120 (MW) /      0.958 (MB)
	Size of irrep 1 of <Ab|Cd> integrals:      0.041 (MW) /      0.326 (MB)
	Size of irrep 2 of <Ab|Cd> integrals:      0.073 (MW) /      0.583 (MB)
	Size of irrep 3 of <Ab|Cd> integrals:      0.073 (MW) /      0.583 (MB)
	Total:                                     0.306 (MW) /      2.451 (MB)

	Size of irrep 0 of <IA|BC> integrals:      0.015 (MW) /      0.117 (MB)
	Size of irrep 1 of <IA|BC> integrals:      0.004 (MW) /      0.030 (MB)
	Size of irrep 2 of <IA|BC> integrals:      0.008 (MW) /      0.065 (MB)
	Size of irrep 3 of <IA|BC> integrals:      0.008 (MW) /      0.065 (MB)
	Total:                                     0.034 (MW) /      0.276 (MB)

	Size of irrep 0 of <ia|bc> integrals:      0.011 (MW) /      0.087 (MB)
	Size of irrep 1 of <ia|bc> integrals:      0.001 (MW) /      0.010 (MB)
	Size of irrep 2 of <ia|bc> integrals:      0.005 (MW) /      0.037 (MB)
	Size of irrep 3 of <ia|bc> integrals:      0.005 (MW) /      0.037 (MB)
	Total:                                     0.021 (MW) /      0.171 (MB)

	Size of irrep 0 of <Ia|Bc> integrals:      0.016 (MW) /      0.127 (MB)
	Size of irrep 1 of <Ia|Bc> integrals:      0.004 (MW) /      0.036 (MB)
	Size of irrep 2 of <Ia|Bc> integrals:      0.009 (MW) /      0.073 (MB)
	Size of irrep 3 of <Ia|Bc> integrals:      0.009 (MW) /      0.073 (MB)
	Total:                                     0.039 (MW) /      0.310 (MB)

	Size of irrep 0 of <iA|bC> integrals:      0.010 (MW) /      0.083 (MB)
	Size of irrep 1 of <iA|bC> integrals:      0.001 (MW) /      0.010 (MB)
	Size of irrep 2 of <iA|bC> integrals:      0.004 (MW) /      0.030 (MB)
	Size of irrep 3 of <iA|bC> integrals:      0.004 (MW) /      0.030 (MB)
	Total:                                     0.019 (MW) /      0.153 (MB)

	Size of irrep 0 of tIjAb amplitudes:       0.001 (MW) /      0.011 (MB)
	Size of irrep 1 of tIjAb amplitudes:       0.000 (MW) /      0.000 (MB)
	Size of irrep 2 of tIjAb amplitudes:       0.001 (MW) /      0.004 (MB)
	Size of irrep 3 of tIjAb amplitudes:       0.001 (MW) /      0.004 (MB)
	Total:                                     0.002 (MW) /      0.020 (MB)

	Nuclear Rep. energy          =      5.60391814385737
	SCF energy                   =   -341.29009017357930
	One-electron energy          =    -14.36161507955782
	Two-electron (AA) energy     =      1.99459316317569
	Two-electron (BB) energy     =      0.29932133059665
	Two-electron (AB) energy     =      3.26605548840909
	Two-electron energy          =      5.55996998218144
	Reference energy             =   -341.29009017357896

*** tstop() called on n412-039.vsc4.prov at Tue Jan 26 18:33:41 2021
Module time:
	user time   =       0.10 seconds =       0.00 minutes
	system time =       0.14 seconds =       0.00 minutes
	total time  =          1 seconds =       0.02 minutes
Total time:
	user time   =      15.83 seconds =       0.26 minutes
	system time =       1.76 seconds =       0.03 minutes
	total time  =          3 seconds =       0.05 minutes
            **************************
            *                        *
            *        CCENERGY        *
            *                        *
            **************************

    Nuclear Rep. energy (wfn)     =    5.603918143857372
    SCF energy          (wfn)     = -341.290090173579301
    Reference energy    (file100) = -341.290090173578960

    Input parameters:
    -----------------
    Wave function   =     CCSD_T
    Reference wfn   =     UHF
    Brueckner       =     No
    Memory (Mbytes) =     250000.0
    Maxiter         =     50
    R_Convergence   =     1.0e-07
    E_Convergence   =     1.0e-06
    Restart         =     Yes
    DIIS            =     Yes
    AO Basis        =     NONE
    ABCD            =     NEW
    Cache Level     =     2
    Cache Type      =     LRU
    Print Level     =     1
    Num. of threads =     48
    # Amps to Print =     10
    Print MP2 Amps? =     No
    Analyze T2 Amps =     No
    Print Pair Ener =     No
    Local CC        =     No
    SCS-MP2         =     False
    SCSN-MP2        =     False
    SCS-CCSD        =     False

MP2 correlation energy -0.0868800182112192
                Solving CC Amplitude Equations
                ------------------------------
  Iter             Energy              RMS        T1Diag      D1Diag    New D1Diag    D2Diag
  ----     ---------------------    ---------   ----------  ----------  ----------   --------
     0        -0.086880018211219    0.000e+00    0.000000    0.000000    0.000000    0.000000
     1        -0.104156137368998    5.495e-02    0.010546    0.000000    0.000000    0.000000
     2        -0.110798199118281    2.262e-02    0.019313    0.000000    0.000000    0.000000
     3        -0.111283228396678    6.940e-03    0.023270    0.000000    0.000000    0.000000
     4        -0.111324378353093    1.744e-03    0.024006    0.000000    0.000000    0.000000
     5        -0.111317014275851    6.825e-04    0.024247    0.000000    0.000000    0.000000
     6        -0.111314646215230    2.455e-04    0.024290    0.000000    0.000000    0.000000
     7        -0.111319146790074    7.589e-05    0.024306    0.000000    0.000000    0.000000
     8        -0.111318279197240    2.960e-05    0.024308    0.000000    0.000000    0.000000
     9        -0.111318009374966    1.194e-05    0.024308    0.000000    0.000000    0.000000
    10        -0.111317948317093    4.073e-06    0.024309    0.000000    0.000000    0.000000
    11        -0.111318009668724    9.120e-07    0.024309    0.000000    0.000000    0.000000
    12        -0.111318004800570    2.781e-07    0.024309    0.000000    0.000000    0.000000
    13        -0.111317999666266    9.968e-08    0.024309    0.000000    0.000000    0.000000

    Iterations converged.

    Largest TIA Amplitudes:
              1   3         0.0193990403
              1   2         0.0133356946
              1   5        -0.0125555661
              2  19        -0.0075201778
              3  26        -0.0075201775
              1  11        -0.0074167093
              1  10         0.0070293651
              1   7         0.0070284273
              2  18         0.0058835513
              3  25         0.0058835512

    Largest Tia Amplitudes:
              1   3        -0.0282371861
              0   3         0.0281858814
              0   7        -0.0103485147
              0   5         0.0090083685
              0   6        -0.0088292479
              0   2         0.0084053707
              1   7         0.0079281297
              1   2        -0.0071721078
              0   1        -0.0068826656
              1   0        -0.0068690555

    Largest TIJAB Amplitudes:
      3   2  15   4        -0.0363516130
      3   1  26   3        -0.0279319276
      2   1  19   3        -0.0279319274
      3   2  26  19        -0.0208840916
      3   2  15   9        -0.0194129641
      3   2  16   4        -0.0194129641
      3   2  28  21        -0.0184569118
      3   2  16   9        -0.0178058738
      3   1  26   2        -0.0163228427
      2   1  19   2        -0.0163228427

    Largest Tijab Amplitudes:
      1   0  20  18         0.0097731418
      1   0  28  26         0.0097731418
      1   0  28  27         0.0079404689
      1   0  20  19         0.0079404689
      1   0   5   3         0.0071036521
      1   0  23  18        -0.0063383792
      1   0  31  26        -0.0063383792
      1   0   3   1         0.0058062149
      1   0  31  27        -0.0057014544
      1   0  23  19        -0.0057014544

    Largest TIjAb Amplitudes:
      1   1   3   3        -0.0609816077
      1   1   3   7         0.0290219876
      2   0   4  18         0.0287605801
      3   0  15  18         0.0287605800
      2   0  15  26         0.0287605799
      3   0   4  26        -0.0287605798
      1   1   7   7         0.0279830153
      2   1  19   3        -0.0268086077
      3   1  26   3        -0.0268086077
      2   1   4  18        -0.0257361388

    SCF energy       (wfn)                    = -341.290090173579301
    Reference energy (file100)                = -341.290090173578960

    Opposite-spin MP2 correlation energy      =   -0.067912127929532
    Same-spin MP2 correlation energy          =   -0.018967890281687
    Singles MP2 correlation energy            =   -0.000000000000000
    MP2 correlation energy                    =   -0.086880018211219
      * MP2 total energy                      = -341.376970191790178

    Opposite-spin CCSD correlation energy     =   -0.090505394237013
    Same-spin CCSD correlation energy         =   -0.020812605429253
    Singles CCSD correlation energy           =   -0.000000000000000
    CCSD correlation energy                   =   -0.111317999666266
      * CCSD total energy                     = -341.401408173245215

            **************************
            *                        *
            *        CCTRIPLES       *
            *                        *
            **************************

    Wave function   =    CCSD_T
    Reference wfn   =      UHF

    Nuclear Rep. energy (wfn)                =    5.603918143857372
    SCF energy          (wfn)                = -341.290090173579301
    Reference energy    (file100)            = -341.290090173578960
    CCSD energy         (file100)            =   -0.111317999666266

      * CCSD(T) total energy                     = -341.404146387787080
*** Psi4 exiting successfully. Buy a developer a beer!
