                               Psi4 1.2a1.dev939

  ==> Input File <==

--------------------------------------------------------------------------
# Any line starting with the # character is a comment line

memory 32000 mb

molecule molecule {
0 1
Cl         0.0000000000        0.0000000000       -0.5693634997
F          0.0000000000        0.0000000000        1.0624916292
}

set {
  reference rhf
  basis aug-cc-pv(T+d)z
  scf_type OUT_OF_CORE
  freeze_core true
}

energy('ccsd')
--------------------------------------------------------------------------

    Molecular point group: c2v

    Geometry (in Angstrom), charge = 0, multiplicity = 1:

       Center              X                  Y                   Z               Mass
    ------------   -----------------  -----------------  -----------------  -----------------
          CL          0.000000000000     0.000000000000    -0.574471338620    34.968852682000
           F          0.000000000000     0.000000000000     1.057383790280    18.998403224000

  Charge       = 0
  Multiplicity = 1
  Basis Set: AUG-CC-PV(T+D)Z
    Blend: AUG-CC-PV(T+D)Z

    Orbital Energies (a.u.)
    -----------------------

    Doubly Occupied:

       1A1  -104.940028     2A1   -26.360420     3A1   -10.656603
       4A1    -8.124130     1B2    -8.119937     1B1    -8.119937
       5A1    -1.640606     6A1    -1.106462     2B1    -0.726099
       2B2    -0.726099     7A1    -0.700900     3B1    -0.494123
       3B2    -0.494123

  @RHF Final Energy:  -558.90573843585241

   => Energetics <=

    Nuclear Repulsion Energy =             49.6147675614110639
    One-Electron Energy =                -872.6220798198695547
    Two-Electron Energy =                 264.1015738226060989
    Total Energy =                       -558.9057384358522995
      * MP2 total energy                      = -559.364033954603656
      * CCSD total energy                     = -559.381130766109209
*** Psi4 exiting successfully. Buy a developer a beer!
