                               Psi4 1.2a1.dev939

  ==> Input File <==

--------------------------------------------------------------------------
# Any line starting with the # character is a comment line

memory 32000 mb

molecule molecule {
0 1
Cl         0.0000000000        0.0000000000       -0.5693634997
F          0.0000000000        0.0000000000        1.0624916292
}

set {
  reference rhf
  basis aug-cc-pv(D+d)z
  scf_type OUT_OF_CORE
  freeze_core true
}

energy('ccsd')
--------------------------------------------------------------------------

    Molecular point group: c2v

    Geometry (in Angstrom), charge = 0, multiplicity = 1:

       Center              X                  Y                   Z               Mass
    ------------   -----------------  -----------------  -----------------  -----------------
          CL          0.000000000000     0.000000000000    -0.574471338620    34.968852682000
           F          0.000000000000     0.000000000000     1.057383790280    18.998403224000

  Charge       = 0
  Multiplicity = 1
  Basis Set: AUG-CC-PV(D+D)Z
    Blend: AUG-CC-PV(D+D)Z

    Orbital Energies (a.u.)
    -----------------------

    Doubly Occupied:

       1A1  -104.941861     2A1   -26.373840     3A1   -10.659218
       4A1    -8.127958     1B1    -8.121814     1B2    -8.121814
       5A1    -1.647456     6A1    -1.109720     2B1    -0.727118
       2B2    -0.727118     7A1    -0.703036     3B1    -0.495279
       3B2    -0.495279

  @RHF Final Energy:  -558.86387785661782

   => Energetics <=

    Nuclear Repulsion Energy =             49.6147675614110639
    One-Electron Energy =                -872.4542714872864053
    Two-Electron Energy =                 263.9756260692573733
    Total Energy =                       -558.8638778566179326
      * MP2 total energy                      = -559.224670170246327
      * CCSD total energy                     = -559.241858187957973
*** Psi4 exiting successfully. Buy a developer a beer!
