                               Psi4 1.2a1.dev939

  ==> Input File <==

--------------------------------------------------------------------------
# Any line starting with the # character is a comment line

memory 32000 mb

molecule molecule {
0 1
Cl         0.0000000000        0.0000000000       -0.5693634997
F          0.0000000000        0.0000000000        1.0624916292
}

set {
  reference rhf
  basis aug-cc-pv(Q+d)z
  scf_type OUT_OF_CORE
  freeze_core true
}

energy('ccsd')
--------------------------------------------------------------------------

    Molecular point group: c2v

    Geometry (in Angstrom), charge = 0, multiplicity = 1:

       Center              X                  Y                   Z               Mass
    ------------   -----------------  -----------------  -----------------  -----------------
          CL          0.000000000000     0.000000000000    -0.574471338620    34.968852682000
           F          0.000000000000     0.000000000000     1.057383790280    18.998403224000

  Charge       = 0
  Multiplicity = 1
  Basis Set: AUG-CC-PV(Q+D)Z
    Blend: AUG-CC-PV(Q+D)Z

    Orbital Energies (a.u.)
    -----------------------

    Doubly Occupied:

       1A1  -104.937940     2A1   -26.356063     3A1   -10.655472
       4A1    -8.123020     1B2    -8.119281     1B1    -8.119281
       5A1    -1.638879     6A1    -1.105668     2B1    -0.725747
       2B2    -0.725747     7A1    -0.700402     3B2    -0.493841
       3B1    -0.493841

  @RHF Final Energy:  -558.91682599042747

   => Energetics <=

    Nuclear Repulsion Energy =             49.6147675614110639
    One-Electron Energy =                -872.6728194316040117
    Two-Electron Energy =                 264.1412258797655568
    Total Energy =                       -558.9168259904273555
      * MP2 total energy                      = -559.411882591306608
      * CCSD total energy                     = -559.425687970892227
*** Psi4 exiting successfully. Buy a developer a beer!
