                               Psi4 1.2a1.dev938

  ==> Input File <==

--------------------------------------------------------------------------
# Any line starting with the # character is a comment line
memory 250000 mb
molecule molecule{
1 2
Cl         0.0000000000        0.0000000000        0.9507745411
Cl         0.0000000000        0.0000000000       -0.9507745411
}

set {
  reference uhf
  basis aug-cc-pv(q+d)z
  scf_type OUT_OF_CORE
  freeze_core true
}

energy('ccsd')
--------------------------------------------------------------------------

    Molecular point group: d2h

    Geometry (in Angstrom), charge = 1, multiplicity = 2:

       Center              X                  Y                   Z               Mass
    ------------   -----------------  -----------------  -----------------  -----------------
          CL          0.000000000000     0.000000000000     0.950774541100    34.968852682000
          CL          0.000000000000     0.000000000000    -0.950774541100    34.968852682000

  Charge       = 1
  Multiplicity = 2
  Basis Set: AUG-CC-PV(Q+D)Z
    Blend: AUG-CC-PV(Q+D)Z

    Orbital Energies (a.u.)
    -----------------------

    Alpha Occupied:

       1Ag  -105.254119     1B1u -105.254117     2Ag   -10.970979
       2B1u  -10.970745     1B2u   -8.447695     1B3g   -8.447682
       3Ag    -8.434982     3B1u   -8.434547     1B3u   -8.432079
       1B2g   -8.432063     4Ag    -1.584278     4B1u   -1.351483
       2B2u   -0.935727     5Ag    -0.932803     2B3u   -0.894930
       2B3g   -0.798904     2B2g   -0.749478

    Alpha Virtual:

       5B1u   -0.226088     6Ag    -0.093944     3B2u   -0.067079
       6B1u   -0.066303     3B3u   -0.062658     7Ag    -0.048579
       3B3g   -0.026695     3B2g   -0.023297     1B1g    0.000002
       8Ag     0.000386     4B2u    0.037794     7B1u    0.050392
       4B3u    0.053075     9Ag     0.110605     1Au     0.112298
       8B1u    0.112460     9B1u    0.159742     4B3g    0.175198
       4B2g    0.182219     5B2u    0.225690     5B3u    0.236855
       6B2u    0.284500    10Ag     0.286550     6B3u    0.299619
       2B1g    0.310704    11Ag     0.312214     5B3g    0.327270
       5B2g    0.336981    10B1u    0.346535    12Ag     0.349064
       2Au     0.397342    11B1u    0.397395    13Ag     0.465660
       7B2u    0.510542     7B3u    0.510545     6B3g    0.512688
       6B2g    0.533116    12B1u    0.589362     3B1g    0.591402
      14Ag     0.591704     7B3g    0.666283     7B2g    0.666288
      13B1u    0.808801     8B2u    0.809711     8B3u    0.821147
       3Au     0.851857    14B1u    0.852130    15Ag     0.876740
       8B3g    0.919179     8B2g    0.933100    15B1u    0.996604
       9B2u    1.226622     9B3u    1.243391     4B1g    1.253765
      16Ag     1.253858    17Ag     1.274679     9B3g    1.294551
      16B1u    1.304150     9B2g    1.318595     4Au     1.338547
      17B1u    1.342993    10B2u    1.424855    10B3u    1.452784
      11B2u    1.471772    11B3u    1.471856    18Ag     1.490467
       5B1g    1.501409    19Ag     1.501423     6B1g    1.535151
      20Ag     1.535854     5Au     1.663663    18B1u    1.663663
      12B2u    1.703986    12B3u    1.705004    10B3g    1.705991
      13B2u    1.722190    10B2g    1.723898    13B3u    1.741423
      11B3g    1.795368    11B2g    1.795389    21Ag     1.881707
       7B1g    1.887806    22Ag     1.905004    12B3g    1.930074
      12B2g    1.930094    19B1u    1.931984     6Au     1.933968
      20B1u    1.993804    13B3g    2.019649    13B2g    2.039581
      21B1u    2.223478    14B2u    2.230924    14B3u    2.245836
       7Au     2.379304    22B1u    2.379813    23Ag     2.407765
      23B1u    2.463172    24Ag     2.739488    14B3g    2.823693
      14B2g    2.847653    24B1u    3.087798    25Ag     3.373314
       8B1g    3.373326     8Au     3.453587    25B1u    3.454692
      15B2u    3.457290    15B3u    3.479380    26Ag     3.514181
      15B3g    3.694666    15B2g    3.717896    27Ag     4.070004
      16B2u    4.112237    16B3u    4.131595     9B1g    4.256301
      28Ag     4.257475    17B2u    4.304250    17B3u    4.304265
      18B2u    4.320263    18B3u    4.320307    10B1g    4.337250
      29Ag     4.337259    30Ag     4.348583    11B1g    4.348795
      16B3g    4.365127    16B2g    4.365159    26B1u    4.385904
       9Au     4.400754    27B1u    4.400763    28B1u    4.476475
      10Au     4.478732    29B1u    4.490684    17B3g    4.521086
      17B2g    4.521150    18B3g    4.550204    18B2g    4.573511
      19B2u    4.625280    19B3u    4.651137    31Ag     4.788450
      11Au     4.819930    30B1u    4.820695    19B3g    5.152653
      19B2g    5.175128    20B2u    5.739073    20B3u    5.769370
      31B1u    5.770801    20B3g    6.455811    20B2g    6.485416
      32B1u    6.959510    32Ag     7.082256    33Ag    10.971905
      12B1g   10.972192    21B2u   11.016900    21B3u   11.033164
      33B1u   11.038670    12Au    11.038766    34Ag    11.248521
      21B3g   11.296075    21B2g   11.312938    34B1u   11.756161
      35Ag    22.990177    35B1u   26.590622

    Beta Occupied:

       1Ag  -105.246573     1B1u -105.246569     2Ag   -10.963299
       2B1u  -10.963001     3Ag    -8.431534     3B1u   -8.431078
       1B3u   -8.427963     1B2g   -8.427946     1B2u   -8.415355
       1B3g   -8.415318     4Ag    -1.540665     4B1u   -1.270354
       5Ag    -0.913673     2B3u   -0.885213     2B2u   -0.782195
       2B2g   -0.735071

    Beta Virtual:

       2B3g   -0.360703     5B1u   -0.210817     6Ag    -0.094331
       6B1u   -0.065164     3B2u   -0.064574     3B3u   -0.062484
       7Ag    -0.047392     3B2g   -0.022996     3B3g   -0.021595
       1B1g    0.007767     8Ag     0.007903     4B3u    0.052068
       7B1u    0.052341     4B2u    0.065500     9Ag     0.116091
       1Au     0.124119     8B1u    0.124299     9B1u    0.162136
       4B2g    0.182951     4B3g    0.187344     5B2u    0.236719
       5B3u    0.237791    10Ag     0.288584     6B3u    0.300181
       6B2u    0.316170    11Ag     0.330524     2B1g    0.331172
       5B2g    0.338063     5B3g    0.341621    10B1u    0.349475
      12Ag     0.352652     2Au     0.433664    11B1u    0.433954
      13Ag     0.478076     7B3u    0.512683     7B2u    0.512688
       6B2g    0.534073     6B3g    0.546350     3B1g    0.596675
      14Ag     0.596787    12B1u    0.599515     7B2g    0.671296
       7B3g    0.671297    13B1u    0.812011     8B2u    0.817152
       8B3u    0.821436     3Au     0.856611    14B1u    0.856859
      15Ag     0.885787     8B3g    0.934898     8B2g    0.934924
      15B1u    1.003844     9B2u    1.235809     9B3u    1.243848
      16Ag     1.274994     4B1g    1.276363    17Ag     1.277717
      16B1u    1.317354     9B2g    1.321256     9B3g    1.329135
       4Au     1.359205    17B1u    1.359289    10B3u    1.457332
      10B2u    1.468299    11B2u    1.472311    11B3u    1.472313
      18Ag     1.490844    19Ag     1.505818     5B1g    1.505818
       6B1g    1.539510    20Ag     1.540255    18B1u    1.669501
       5Au     1.669501    10B3g    1.716470    12B3u    1.724258
      12B2u    1.724258    10B2g    1.724885    13B2u    1.737897
      13B3u    1.741516    11B3g    1.814694    11B2g    1.814699
      21Ag     1.892968     7B1g    1.894517    22Ag     1.906073
      12B3g    1.934495    12B2g    1.934500    19B1u    1.945169
       6Au     1.945422    20B1u    1.998256    13B3g    2.035895
      13B2g    2.041002    21B1u    2.228260    14B2u    2.237549
      14B3u    2.245963     7Au     2.384560    22B1u    2.384687
      23Ag     2.422037    23B1u    2.468842    24Ag     2.746489
      14B3g    2.845484    14B2g    2.850286    24B1u    3.100505
      25Ag     3.384751     8B1g    3.384904     8Au     3.465509
      25B1u    3.465666    15B2u    3.468620    15B3u    3.480746
      26Ag     3.516231    15B3g    3.707419    15B2g    3.719379
      27Ag     4.077493    16B2u    4.121228    16B3u    4.133294
       9B1g    4.263728    28Ag     4.264087    17B2u    4.325489
      17B3u    4.325490    18B2u    4.332214    18B3u    4.332217
      10B1g    4.354113    29Ag     4.354113    30Ag     4.363034
      11B1g    4.363096    16B3g    4.384505    16B2g    4.384507
      26B1u    4.396445    27B1u    4.418072     9Au     4.418072
      28B1u    4.487873    10Au     4.490623    29B1u    4.495461
      17B3g    4.535055    17B2g    4.535065    18B3g    4.565675
      18B2g    4.575555    19B2u    4.642693    19B3u    4.652611
      31Ag     4.794718    11Au     4.829247    30B1u    4.829420
      19B3g    5.163629    19B2g    5.175678    20B2u    5.771427
      31B1u    5.773124    20B3u    5.773657    20B3g    6.483271
      20B2g    6.489310    32B1u    6.963080    32Ag     7.085566
      33Ag    10.981320    12B1g   10.981406    21B2u   11.025614
      21B3u   11.034464    33B1u   11.048083    12Au    11.048114
      34Ag    11.252457    21B3g   11.305342    21B2g   11.314393
      34B1u   11.760773    35Ag    22.998865    35B1u   26.598444

    Final Occupation by Irrep:
             Ag   B1g   B2g   B3g    Au   B1u   B2u   B3u
    DOCC [     5,    0,    2,    1,    0,    4,    2,    2 ]
    SOCC [     0,    0,    0,    1,    0,    0,    0,    0 ]

  Energy converged.

  @UHF Final Energy:  -918.61069173204191

   => Energetics <=

    Nuclear Repulsion Energy =             80.4250674957991549
    One-Electron Energy =               -1418.6490990492206947
    Two-Electron Energy =                 419.6133398213796681
    Total Energy =                       -918.6106917320419143

  UHF NO Occupations:
  HONO-2 :    4B1u 1.9978444
  HONO-1 :    2B2u 1.9908095
  HONO-0 :    2B3g 1.0000000
  LUNO+0 :    3B2u 0.0091905
  LUNO+1 :    5B1u 0.0021556
  LUNO+2 :    6 Ag 0.0018859
  LUNO+3 :    3B2g 0.0001227

Properties will be evaluated at   0.000000,   0.000000,   0.000000 Bohr

Properties computed using the SCF density matrix

  Nuclear Dipole Moment: (a.u.)
     X:     0.0000      Y:     0.0000      Z:     0.0000

  Electronic Dipole Moment: (a.u.)
     X:     0.0000      Y:     0.0000      Z:     0.0000

  Dipole Moment: (a.u.)
     X:     0.0000      Y:     0.0000      Z:     0.0000     Total:     0.0000

  Dipole Moment: (Debye)
     X:     0.0000      Y:     0.0000      Z:     0.0000     Total:     0.0000

*** tstop() called on cqc05 at Thu Aug 20 20:45:18 2020
Module time:
	user time   =      16.11 seconds =       0.27 minutes
	system time =       0.64 seconds =       0.01 minutes
	total time  =         17 seconds =       0.28 minutes
Total time:
	user time   =      16.11 seconds =       0.27 minutes
	system time =       0.64 seconds =       0.01 minutes
	total time  =         17 seconds =       0.28 minutes

*** tstart() called on cqc05
*** at Thu Aug 20 20:45:18 2020

	Wfn Parameters:
	--------------------
	Wavefunction         = CCSD
	Number of irreps     = 8
	Number of MOs        = 178
	Number of active MOs = 168
	AO-Basis             = NONE
	Semicanonical        = false
	Reference            = UHF
	Print Level          = 1

	IRREP	# MOs	# FZDC	# DOCC	# SOCC	# VIRT	# FZVR
	-----	-----	------	------	------	------	------
	 Ag	   35	    3	    2	    0	    30	    0
	 B1g	   12	    0	    0	    0	    12	    0
	 B2g	   21	    1	    1	    0	    19	    0
	 B3g	   21	    1	    0	    1	    19	    0
	 Au	   12	    0	    0	    0	    12	    0
	 B1u	   35	    3	    1	    0	    31	    0
	 B2u	   21	    1	    1	    0	    19	    0
	 B3u	   21	    1	    1	    0	    19	    0
	Transforming integrals...
	IWL integrals will be deleted.
	(OO|OO)...
	Presorting SO-basis two-electron integrals.
	Sorting File: SO Ints (nn|nn) nbuckets = 1
	Transforming the one-electron integrals and constructing Fock matrices
	Starting AA/AB first half-transformation.
	Sorting AA/AB half-transformed integrals.
	Starting BB first half-transformation.
	Sorting BB half-transformed integrals.
	First half integral transformation complete.
	Starting AA second half-transformation.
	Starting AB second half-transformation.
	Starting BB second half-transformation.
	Two-electron integral transformation complete.
	(OO|OV)...
	Starting AA second half-transformation.
	Starting AB second half-transformation.
	Starting BB second half-transformation.
	Two-electron integral transformation complete.
	(OO|VV)...
	Starting AA second half-transformation.
	Starting AB second half-transformation.
	Starting BB second half-transformation.
	Two-electron integral transformation complete.
	(OV|OO)...
	Starting AA/AB first half-transformation.
	Sorting AA/AB half-transformed integrals.
	Starting BB first half-transformation.
	Sorting BB half-transformed integrals.
	First half integral transformation complete.
	Starting AA second half-transformation.
	Starting AB second half-transformation.
	Starting BB second half-transformation.
	Two-electron integral transformation complete.
	(OV|OV)...
	Starting AA second half-transformation.
	Starting AB second half-transformation.
	Starting BB second half-transformation.
	Two-electron integral transformation complete.
	(OV|VV)...
	Starting AA second half-transformation.
	Starting AB second half-transformation.
	Starting BB second half-transformation.
	Two-electron integral transformation complete.
	(VV|OO)...
	Starting AA/AB first half-transformation.
	Sorting AA/AB half-transformed integrals.
	Starting BB first half-transformation.
	Sorting BB half-transformed integrals.
	First half integral transformation complete.
	Starting AA second half-transformation.
	Starting AB second half-transformation.
	Starting BB second half-transformation.
	Two-electron integral transformation complete.
	(VV|OV)...
	Starting AA second half-transformation.
	Starting AB second half-transformation.
	Starting BB second half-transformation.
	Two-electron integral transformation complete.
	(VV|VV)...
	Starting AA second half-transformation.
	Starting AB second half-transformation.
	Starting BB second half-transformation.
	Two-electron integral transformation complete.
	Frozen core energy     =   -956.28736881469217

	Size of irrep 0 of <AB|CD> integrals:      2.945 (MW) /     23.557 (MB)
	Size of irrep 1 of <AB|CD> integrals:      2.114 (MW) /     16.913 (MB)
	Size of irrep 2 of <AB|CD> integrals:      2.608 (MW) /     20.866 (MB)
	Size of irrep 3 of <AB|CD> integrals:      2.608 (MW) /     20.866 (MB)
	Size of irrep 4 of <AB|CD> integrals:      2.114 (MW) /     16.913 (MB)
	Size of irrep 5 of <AB|CD> integrals:      3.226 (MW) /     25.805 (MB)
	Size of irrep 6 of <AB|CD> integrals:      2.608 (MW) /     20.866 (MB)
	Size of irrep 7 of <AB|CD> integrals:      2.608 (MW) /     20.866 (MB)
	Total:                                    20.831 (MW) /    166.651 (MB)

	Size of irrep 0 of <ab|cd> integrals:      3.010 (MW) /     24.082 (MB)
	Size of irrep 1 of <ab|cd> integrals:      2.170 (MW) /     17.358 (MB)
	Size of irrep 2 of <ab|cd> integrals:      2.647 (MW) /     21.177 (MB)
	Size of irrep 3 of <ab|cd> integrals:      2.706 (MW) /     21.648 (MB)
	Size of irrep 4 of <ab|cd> integrals:      2.170 (MW) /     17.358 (MB)
	Size of irrep 5 of <ab|cd> integrals:      3.294 (MW) /     26.354 (MB)
	Size of irrep 6 of <ab|cd> integrals:      2.709 (MW) /     21.675 (MB)
	Size of irrep 7 of <ab|cd> integrals:      2.647 (MW) /     21.177 (MB)
	Total:                                    21.354 (MW) /    170.828 (MB)

	Size of irrep 0 of <Ab|Cd> integrals:     13.047 (MW) /    104.372 (MB)
	Size of irrep 1 of <Ab|Cd> integrals:      8.567 (MW) /     68.539 (MB)
	Size of irrep 2 of <Ab|Cd> integrals:     10.511 (MW) /     84.085 (MB)
	Size of irrep 3 of <Ab|Cd> integrals:     10.628 (MW) /     85.021 (MB)
	Size of irrep 4 of <Ab|Cd> integrals:      8.567 (MW) /     68.539 (MB)
	Size of irrep 5 of <Ab|Cd> integrals:     13.039 (MW) /    104.315 (MB)
	Size of irrep 6 of <Ab|Cd> integrals:     10.634 (MW) /     85.073 (MB)
	Size of irrep 7 of <Ab|Cd> integrals:     10.511 (MW) /     84.085 (MB)
	Total:                                    85.503 (MW) /    684.027 (MB)

	Size of irrep 0 of <IA|BC> integrals:      0.600 (MW) /      4.800 (MB)
	Size of irrep 1 of <IA|BC> integrals:      0.326 (MW) /      2.606 (MB)
	Size of irrep 2 of <IA|BC> integrals:      0.459 (MW) /      3.669 (MB)
	Size of irrep 3 of <IA|BC> integrals:      0.459 (MW) /      3.669 (MB)
	Size of irrep 4 of <IA|BC> integrals:      0.326 (MW) /      2.606 (MB)
	Size of irrep 5 of <IA|BC> integrals:      0.603 (MW) /      4.828 (MB)
	Size of irrep 6 of <IA|BC> integrals:      0.459 (MW) /      3.669 (MB)
	Size of irrep 7 of <IA|BC> integrals:      0.459 (MW) /      3.669 (MB)
	Total:                                     3.690 (MW) /     29.516 (MB)

	Size of irrep 0 of <ia|bc> integrals:      0.538 (MW) /      4.300 (MB)
	Size of irrep 1 of <ia|bc> integrals:      0.277 (MW) /      2.215 (MB)
	Size of irrep 2 of <ia|bc> integrals:      0.423 (MW) /      3.384 (MB)
	Size of irrep 3 of <ia|bc> integrals:      0.375 (MW) /      3.000 (MB)
	Size of irrep 4 of <ia|bc> integrals:      0.277 (MW) /      2.215 (MB)
	Size of irrep 5 of <ia|bc> integrals:      0.544 (MW) /      4.356 (MB)
	Size of irrep 6 of <ia|bc> integrals:      0.369 (MW) /      2.950 (MB)
	Size of irrep 7 of <ia|bc> integrals:      0.423 (MW) /      3.384 (MB)
	Total:                                     3.226 (MW) /     25.806 (MB)

	Size of irrep 0 of <Ia|Bc> integrals:      0.607 (MW) /      4.855 (MB)
	Size of irrep 1 of <Ia|Bc> integrals:      0.331 (MW) /      2.646 (MB)
	Size of irrep 2 of <Ia|Bc> integrals:      0.460 (MW) /      3.683 (MB)
	Size of irrep 3 of <Ia|Bc> integrals:      0.469 (MW) /      3.756 (MB)
	Size of irrep 4 of <Ia|Bc> integrals:      0.331 (MW) /      2.646 (MB)
	Size of irrep 5 of <Ia|Bc> integrals:      0.610 (MW) /      4.882 (MB)
	Size of irrep 6 of <Ia|Bc> integrals:      0.466 (MW) /      3.731 (MB)
	Size of irrep 7 of <Ia|Bc> integrals:      0.460 (MW) /      3.683 (MB)
	Total:                                     3.735 (MW) /     29.881 (MB)

	Size of irrep 0 of <iA|bC> integrals:      0.535 (MW) /      4.277 (MB)
	Size of irrep 1 of <iA|bC> integrals:      0.272 (MW) /      2.178 (MB)
	Size of irrep 2 of <iA|bC> integrals:      0.421 (MW) /      3.372 (MB)
	Size of irrep 3 of <iA|bC> integrals:      0.365 (MW) /      2.921 (MB)
	Size of irrep 4 of <iA|bC> integrals:      0.272 (MW) /      2.178 (MB)
	Size of irrep 5 of <iA|bC> integrals:      0.538 (MW) /      4.304 (MB)
	Size of irrep 6 of <iA|bC> integrals:      0.362 (MW) /      2.896 (MB)
	Size of irrep 7 of <iA|bC> integrals:      0.421 (MW) /      3.372 (MB)
	Total:                                     3.187 (MW) /     25.496 (MB)

	Size of irrep 0 of tIjAb amplitudes:       0.029 (MW) /      0.231 (MB)
	Size of irrep 1 of tIjAb amplitudes:       0.009 (MW) /      0.070 (MB)
	Size of irrep 2 of tIjAb amplitudes:       0.019 (MW) /      0.156 (MB)
	Size of irrep 3 of tIjAb amplitudes:       0.013 (MW) /      0.104 (MB)
	Size of irrep 4 of tIjAb amplitudes:       0.009 (MW) /      0.070 (MB)
	Size of irrep 5 of tIjAb amplitudes:       0.025 (MW) /      0.202 (MB)
	Size of irrep 6 of tIjAb amplitudes:       0.016 (MW) /      0.130 (MB)
	Size of irrep 7 of tIjAb amplitudes:       0.019 (MW) /      0.156 (MB)
	Total:                                     0.140 (MW) /      1.120 (MB)

	Nuclear Rep. energy          =     80.42506749579915
	SCF energy                   =   -918.61069173204191
	One-electron energy          =    -72.12200642928207
	Two-electron (AA) energy     =      7.19526661065225
	Two-electron (BB) energy     =      5.13103367386084
	Two-electron (AB) energy     =     17.04731573162145
	Two-electron energy          =     29.37361601613454
	Reference energy             =   -918.61069173204055

*** tstop() called on cqc05 at Thu Aug 20 20:45:33 2020
Module time:
	user time   =       9.45 seconds =       0.16 minutes
	system time =       5.87 seconds =       0.10 minutes
	total time  =         15 seconds =       0.25 minutes
Total time:
	user time   =      25.56 seconds =       0.43 minutes
	system time =       6.51 seconds =       0.11 minutes
	total time  =         32 seconds =       0.53 minutes

*** tstart() called on cqc05
*** at Thu Aug 20 20:45:33 2020

            **************************
            *                        *
            *        CCENERGY        *
            *                        *
            **************************

    Nuclear Rep. energy (wfn)     =   80.425067495799155
    SCF energy          (wfn)     = -918.610691732041914
    Reference energy    (file100) = -918.610691732040550

    Input parameters:
    -----------------
    Wave function   =     CCSD
    Reference wfn   =     UHF
    Brueckner       =     No
    Memory (Mbytes) =     250000.0

      * MP2 total energy                      = -919.009020109021435
      * CCSD total energy                     = -919.037873629373735
*** Psi4 exiting successfully. Buy a developer a beer!
