                               Psi4 1.2a1.dev938

  ==> Input File <==

--------------------------------------------------------------------------
# Any line starting with the # character is a comment line
memory 250000 mb
molecule molecule{
1 2
Cl         0.0000000000        0.0000000000        0.9507745411
Cl         0.0000000000        0.0000000000       -0.9507745411
}

set {
  reference uhf
  basis aug-cc-pv(d+d)z
  scf_type OUT_OF_CORE
  freeze_core true
}

energy('ccsd')
--------------------------------------------------------------------------

    Molecular point group: d2h

    Geometry (in Angstrom), charge = 1, multiplicity = 2:

       Center              X                  Y                   Z               Mass
    ------------   -----------------  -----------------  -----------------  -----------------
          CL          0.000000000000     0.000000000000     0.950774541100    34.968852682000
          CL          0.000000000000     0.000000000000    -0.950774541100    34.968852682000

  Charge       = 1
  Multiplicity = 2
  Basis Set: AUG-CC-PV(D+D)Z
    Blend: AUG-CC-PV(D+D)Z

    Orbital Energies (a.u.)
    -----------------------

    Alpha Occupied:

       1Ag  -105.253489     1B1u -105.253488     2Ag   -10.972826
       2B1u  -10.972653     1B2u   -8.448390     1B3g   -8.448375
       3Ag    -8.437939     3B1u   -8.437511     1B3u   -8.432151
       1B2g   -8.432135     4Ag    -1.592460     4B1u   -1.355840
       5Ag    -0.939013     2B2u   -0.937929     2B3u   -0.897184
       2B3g   -0.799750     2B2g   -0.752336

    Alpha Virtual:

       5B1u   -0.234587     6Ag    -0.075905     3B2u   -0.050695
       6B1u   -0.049813     3B3u   -0.044181     7Ag    -0.036869
       3B3g   -0.006273     3B2g   -0.000794     4B2u    0.087191
       8Ag     0.097667     1B1g    0.097784     7B1u    0.105936
       4B3u    0.109565     9Ag     0.236291     1Au     0.241913
       8B1u    0.242025     4B3g    0.405050     4B2g    0.425566
       9B1u    0.467045     5B2u    0.578157     5B3u    0.602046
      10B1u    0.677231     5B3g    0.694599     5B2g    0.719498
      10Ag     0.750592    11Ag     0.872678     2B1g    0.923531
       6B2u    0.925708    12Ag     0.927923     6B3u    0.946599
      13Ag     0.979985    11B1u    0.981661     2Au     0.982415
       6B3g    1.047553     6B2g    1.070405    12B1u    1.161302
      13B1u    1.613840    14Ag     5.478545     7B2u    5.496592
       7B3u    5.513927     3B1g    5.564469    15Ag     5.565683
      14B1u    5.600154     3Au     5.600641     7B3g    5.673697
       7B2g    5.691867    15B1u    5.823760

    Beta Occupied:

       1Ag  -105.246039     1B1u -105.246036     2Ag   -10.965181
       2B1u  -10.964947     3Ag    -8.434541     3B1u   -8.434096
       1B3u   -8.428010     1B2g   -8.427993     1B2u   -8.416899
       1B3g   -8.416861     4Ag    -1.547701     4B1u   -1.275358
       5Ag    -0.917634     2B3u   -0.885550     2B2u   -0.784121
       2B2g   -0.736337

    Beta Virtual:

       2B3g   -0.367642     5B1u   -0.218147     6Ag    -0.076335
       6B1u   -0.048043     3B2u   -0.046400     3B3u   -0.043775
       7Ag    -0.035118     3B2g   -0.000179     3B3g    0.002350
       7B1u    0.109471     4B3u    0.109995     1B1g    0.117418
       8Ag     0.117573     4B2u    0.131463     9Ag     0.248530
       1Au     0.277129     8B1u    0.277759     4B2g    0.428242
       4B3g    0.440745     9B1u    0.477001     5B3u    0.606681
       5B2u    0.625571    10B1u    0.682308     5B2g    0.723506
       5B3g    0.737088    10Ag     0.757865    11Ag     0.894569
       6B2u    0.946539     6B3u    0.948628     2B1g    0.955712
      12Ag     0.956135    13Ag     0.979721     2Au     1.012802
      11B1u    1.013083     6B2g    1.073706     6B3g    1.076562
      12B1u    1.174701    13B1u    1.624322    14Ag     5.481983
       7B2u    5.502003     7B3u    5.514776     3B1g    5.571278
      15Ag     5.571813    14B1u    5.607596     3Au     5.607818
       7B3g    5.680881     7B2g    5.692965    15B1u    5.826983

    Final Occupation by Irrep:
             Ag   B1g   B2g   B3g    Au   B1u   B2u   B3u
    DOCC [     5,    0,    2,    1,    0,    4,    2,    2 ]
    SOCC [     0,    0,    0,    1,    0,    0,    0,    0 ]

  Energy converged.

  @UHF Final Energy:  -918.56581867889724

   => Energetics <=

    Nuclear Repulsion Energy =             80.4250674957991549
    One-Electron Energy =               -1418.4909999264054932
    Two-Electron Energy =                 419.5001137517091934
    Total Energy =                       -918.5658186788971307

  UHF NO Occupations:
  HONO-2 :    4B1u 1.9982056
  HONO-1 :    2B2u 1.9921358
  HONO-0 :    2B3g 1.0000000
  LUNO+0 :    3B2u 0.0078642
  LUNO+1 :    5B1u 0.0017944
  LUNO+2 :    6 Ag 0.0014806
  LUNO+3 :    7 Ag 0.0000514

Properties will be evaluated at   0.000000,   0.000000,   0.000000 Bohr

Properties computed using the SCF density matrix

  Nuclear Dipole Moment: (a.u.)
     X:     0.0000      Y:     0.0000      Z:     0.0000

  Electronic Dipole Moment: (a.u.)
     X:     0.0000      Y:     0.0000      Z:     0.0000

  Dipole Moment: (a.u.)
     X:     0.0000      Y:     0.0000      Z:     0.0000     Total:     0.0000

  Dipole Moment: (Debye)
     X:     0.0000      Y:     0.0000      Z:     0.0000     Total:     0.0000

*** tstop() called on cqc05 at Thu Aug 20 19:54:00 2020
Module time:
	user time   =       1.26 seconds =       0.02 minutes
	system time =       0.02 seconds =       0.00 minutes
	total time  =          1 seconds =       0.02 minutes
Total time:
	user time   =       1.26 seconds =       0.02 minutes
	system time =       0.02 seconds =       0.00 minutes
	total time  =          1 seconds =       0.02 minutes

*** tstart() called on cqc05
*** at Thu Aug 20 19:54:00 2020

	Wfn Parameters:
	--------------------
	Wavefunction         = CCSD
	Number of irreps     = 8
	Number of MOs        = 64
	Number of active MOs = 54
	AO-Basis             = NONE
	Semicanonical        = false
	Reference            = UHF
	Print Level          = 1

	IRREP	# MOs	# FZDC	# DOCC	# SOCC	# VIRT	# FZVR
	-----	-----	------	------	------	------	------
	 Ag	   15	    3	    2	    0	    10	    0
	 B1g	   3	    0	    0	    0	    3	    0
	 B2g	   7	    1	    1	    0	    5	    0
	 B3g	   7	    1	    0	    1	    5	    0
	 Au	   3	    0	    0	    0	    3	    0
	 B1u	   15	    3	    1	    0	    11	    0
	 B2u	   7	    1	    1	    0	    5	    0
	 B3u	   7	    1	    1	    0	    5	    0
	Transforming integrals...
	IWL integrals will be deleted.
	(OO|OO)...
	Presorting SO-basis two-electron integrals.
	Sorting File: SO Ints (nn|nn) nbuckets = 1
	Transforming the one-electron integrals and constructing Fock matrices
	Starting AA/AB first half-transformation.
	Sorting AA/AB half-transformed integrals.
	Starting BB first half-transformation.
	Sorting BB half-transformed integrals.
	First half integral transformation complete.
	Starting AA second half-transformation.
	Starting AB second half-transformation.
	Starting BB second half-transformation.
	Two-electron integral transformation complete.
	(OO|OV)...
	Starting AA second half-transformation.
	Starting AB second half-transformation.
	Starting BB second half-transformation.
	Two-electron integral transformation complete.
	(OO|VV)...
	Starting AA second half-transformation.
	Starting AB second half-transformation.
	Starting BB second half-transformation.
	Two-electron integral transformation complete.
	(OV|OO)...
	Starting AA/AB first half-transformation.
	Sorting AA/AB half-transformed integrals.
	Starting BB first half-transformation.
	Sorting BB half-transformed integrals.
	First half integral transformation complete.
	Starting AA second half-transformation.
	Starting AB second half-transformation.
	Starting BB second half-transformation.
	Two-electron integral transformation complete.
	(OV|OV)...
	Starting AA second half-transformation.
	Starting AB second half-transformation.
	Starting BB second half-transformation.
	Two-electron integral transformation complete.
	(OV|VV)...
	Starting AA second half-transformation.
	Starting AB second half-transformation.
	Starting BB second half-transformation.
	Two-electron integral transformation complete.
	(VV|OO)...
	Starting AA/AB first half-transformation.
	Sorting AA/AB half-transformed integrals.
	Starting BB first half-transformation.
	Sorting BB half-transformed integrals.
	First half integral transformation complete.
	Starting AA second half-transformation.
	Starting AB second half-transformation.
	Starting BB second half-transformation.
	Two-electron integral transformation complete.
	(VV|OV)...
	Starting AA second half-transformation.
	Starting AB second half-transformation.
	Starting BB second half-transformation.
	Two-electron integral transformation complete.
	(VV|VV)...
	Starting AA second half-transformation.
	Starting AB second half-transformation.
	Starting BB second half-transformation.
	Two-electron integral transformation complete.
	Frozen core energy     =   -956.26618070645861

	Size of irrep 0 of <AB|CD> integrals:      0.021 (MW) /      0.171 (MB)
	Size of irrep 1 of <AB|CD> integrals:      0.013 (MW) /      0.102 (MB)
	Size of irrep 2 of <AB|CD> integrals:      0.018 (MW) /      0.146 (MB)
	Size of irrep 3 of <AB|CD> integrals:      0.018 (MW) /      0.146 (MB)
	Size of irrep 4 of <AB|CD> integrals:      0.013 (MW) /      0.102 (MB)
	Size of irrep 5 of <AB|CD> integrals:      0.029 (MW) /      0.228 (MB)
	Size of irrep 6 of <AB|CD> integrals:      0.018 (MW) /      0.146 (MB)
	Size of irrep 7 of <AB|CD> integrals:      0.018 (MW) /      0.146 (MB)
	Total:                                     0.148 (MW) /      1.187 (MB)

	Size of irrep 0 of <ab|cd> integrals:      0.023 (MW) /      0.182 (MB)
	Size of irrep 1 of <ab|cd> integrals:      0.014 (MW) /      0.111 (MB)
	Size of irrep 2 of <ab|cd> integrals:      0.019 (MW) /      0.152 (MB)
	Size of irrep 3 of <ab|cd> integrals:      0.021 (MW) /      0.168 (MB)
	Size of irrep 4 of <ab|cd> integrals:      0.014 (MW) /      0.111 (MB)
	Size of irrep 5 of <ab|cd> integrals:      0.030 (MW) /      0.242 (MB)
	Size of irrep 6 of <ab|cd> integrals:      0.021 (MW) /      0.171 (MB)
	Size of irrep 7 of <ab|cd> integrals:      0.019 (MW) /      0.152 (MB)
	Total:                                     0.161 (MW) /      1.291 (MB)

	Size of irrep 0 of <Ab|Cd> integrals:      0.118 (MW) /      0.947 (MB)
	Size of irrep 1 of <Ab|Cd> integrals:      0.053 (MW) /      0.427 (MB)
	Size of irrep 2 of <Ab|Cd> integrals:      0.075 (MW) /      0.596 (MB)
	Size of irrep 3 of <Ab|Cd> integrals:      0.078 (MW) /      0.627 (MB)
	Size of irrep 4 of <Ab|Cd> integrals:      0.053 (MW) /      0.427 (MB)
	Size of irrep 5 of <Ab|Cd> integrals:      0.118 (MW) /      0.941 (MB)
	Size of irrep 6 of <Ab|Cd> integrals:      0.079 (MW) /      0.632 (MB)
	Size of irrep 7 of <Ab|Cd> integrals:      0.075 (MW) /      0.596 (MB)
	Total:                                     0.649 (MW) /      5.193 (MB)

	Size of irrep 0 of <IA|BC> integrals:      0.017 (MW) /      0.138 (MB)
	Size of irrep 1 of <IA|BC> integrals:      0.007 (MW) /      0.052 (MB)
	Size of irrep 2 of <IA|BC> integrals:      0.011 (MW) /      0.091 (MB)
	Size of irrep 3 of <IA|BC> integrals:      0.011 (MW) /      0.091 (MB)
	Size of irrep 4 of <IA|BC> integrals:      0.007 (MW) /      0.052 (MB)
	Size of irrep 5 of <IA|BC> integrals:      0.018 (MW) /      0.141 (MB)
	Size of irrep 6 of <IA|BC> integrals:      0.011 (MW) /      0.091 (MB)
	Size of irrep 7 of <IA|BC> integrals:      0.011 (MW) /      0.091 (MB)
	Total:                                     0.093 (MW) /      0.747 (MB)

	Size of irrep 0 of <ia|bc> integrals:      0.016 (MW) /      0.129 (MB)
	Size of irrep 1 of <ia|bc> integrals:      0.006 (MW) /      0.047 (MB)
	Size of irrep 2 of <ia|bc> integrals:      0.011 (MW) /      0.086 (MB)
	Size of irrep 3 of <ia|bc> integrals:      0.010 (MW) /      0.079 (MB)
	Size of irrep 4 of <ia|bc> integrals:      0.006 (MW) /      0.047 (MB)
	Size of irrep 5 of <ia|bc> integrals:      0.017 (MW) /      0.134 (MB)
	Size of irrep 6 of <ia|bc> integrals:      0.009 (MW) /      0.075 (MB)
	Size of irrep 7 of <ia|bc> integrals:      0.011 (MW) /      0.086 (MB)
	Total:                                     0.085 (MW) /      0.683 (MB)

	Size of irrep 0 of <Ia|Bc> integrals:      0.018 (MW) /      0.143 (MB)
	Size of irrep 1 of <Ia|Bc> integrals:      0.007 (MW) /      0.055 (MB)
	Size of irrep 2 of <Ia|Bc> integrals:      0.011 (MW) /      0.092 (MB)
	Size of irrep 3 of <Ia|Bc> integrals:      0.012 (MW) /      0.099 (MB)
	Size of irrep 4 of <Ia|Bc> integrals:      0.007 (MW) /      0.055 (MB)
	Size of irrep 5 of <Ia|Bc> integrals:      0.018 (MW) /      0.145 (MB)
	Size of irrep 6 of <Ia|Bc> integrals:      0.012 (MW) /      0.097 (MB)
	Size of irrep 7 of <Ia|Bc> integrals:      0.011 (MW) /      0.092 (MB)
	Total:                                     0.097 (MW) /      0.778 (MB)

	Size of irrep 0 of <iA|bC> integrals:      0.016 (MW) /      0.127 (MB)
	Size of irrep 1 of <iA|bC> integrals:      0.006 (MW) /      0.044 (MB)
	Size of irrep 2 of <iA|bC> integrals:      0.011 (MW) /      0.085 (MB)
	Size of irrep 3 of <iA|bC> integrals:      0.009 (MW) /      0.072 (MB)
	Size of irrep 4 of <iA|bC> integrals:      0.006 (MW) /      0.044 (MB)
	Size of irrep 5 of <iA|bC> integrals:      0.016 (MW) /      0.129 (MB)
	Size of irrep 6 of <iA|bC> integrals:      0.009 (MW) /      0.070 (MB)
	Size of irrep 7 of <iA|bC> integrals:      0.011 (MW) /      0.085 (MB)
	Total:                                     0.082 (MW) /      0.656 (MB)

	Size of irrep 0 of tIjAb amplitudes:       0.003 (MW) /      0.022 (MB)
	Size of irrep 1 of tIjAb amplitudes:       0.001 (MW) /      0.006 (MB)
	Size of irrep 2 of tIjAb amplitudes:       0.002 (MW) /      0.013 (MB)
	Size of irrep 3 of tIjAb amplitudes:       0.001 (MW) /      0.009 (MB)
	Size of irrep 4 of tIjAb amplitudes:       0.001 (MW) /      0.006 (MB)
	Size of irrep 5 of tIjAb amplitudes:       0.002 (MW) /      0.019 (MB)
	Size of irrep 6 of tIjAb amplitudes:       0.001 (MW) /      0.011 (MB)
	Size of irrep 7 of tIjAb amplitudes:       0.002 (MW) /      0.013 (MB)
	Total:                                     0.012 (MW) /      0.099 (MB)

	Nuclear Rep. energy          =     80.42506749579915
	SCF energy                   =   -918.56581867889724
	One-electron energy          =    -72.02819949007657
	Two-electron (AA) energy     =      7.18533252889385
	Two-electron (BB) energy     =      5.11369918932433
	Two-electron (AB) energy     =     17.00446230361959
	Two-electron energy          =     29.30349402183778
	Reference energy             =   -918.56581867889827

*** tstop() called on cqc05 at Thu Aug 20 19:54:00 2020
Module time:
	user time   =       0.20 seconds =       0.00 minutes
	system time =       0.12 seconds =       0.00 minutes
	total time  =          0 seconds =       0.00 minutes
Total time:
	user time   =       1.46 seconds =       0.02 minutes
	system time =       0.14 seconds =       0.00 minutes
	total time  =          1 seconds =       0.02 minutes

*** tstart() called on cqc05
*** at Thu Aug 20 19:54:00 2020

            **************************
            *                        *
            *        CCENERGY        *
            *                        *
            **************************

    Nuclear Rep. energy (wfn)     =   80.425067495799155
    SCF energy          (wfn)     = -918.565818678897244
    Reference energy    (file100) = -918.565818678898268

    Input parameters:
    -----------------
    Wave function   =     CCSD
    Reference wfn   =     UHF
    Brueckner       =     No
    Memory (Mbytes) =     250000.0
    Maxiter         =     50
    R_Convergence   =     1.0e-07
    E_Convergence   =     1.0e-06
    Restart         =     Yes
    DIIS            =     Yes
    AO Basis        =     NONE
    ABCD            =     NEW
    Cache Level     =     2
    Cache Type      =     LRU
    Print Level     =     1
    Num. of threads =     4
    # Amps to Print =     10
    Print MP2 Amps? =     No
    Analyze T2 Amps =     No
    Print Pair Ener =     No
    Local CC        =     No
    SCS-MP2         =     False
    SCSN-MP2        =     False
    SCS-CCSD        =     False

MP2 correlation energy -0.2858799670635165
                Solving CC Amplitude Equations
                ------------------------------
  Iter             Energy              RMS        T1Diag      D1Diag    New D1Diag    D2Diag
  ----     ---------------------    ---------   ----------  ----------  ----------   --------
     0        -0.285879967063516    0.000e+00    0.000000    0.000000    0.000000    0.000000
     1        -0.303748241574684    6.880e-02    0.013184    0.000000    0.000000    0.000000
     2        -0.312779838079439    2.156e-02    0.015932    0.000000    0.000000    0.000000
     3        -0.314296214297777    8.015e-03    0.018067    0.000000    0.000000    0.000000
     4        -0.314282880998340    1.771e-03    0.018476    0.000000    0.000000    0.000000
     5        -0.314265675955059    4.715e-04    0.018543    0.000000    0.000000    0.000000
     6        -0.314262857589936    1.472e-04    0.018555    0.000000    0.000000    0.000000
     7        -0.314263922031134    4.112e-05    0.018554    0.000000    0.000000    0.000000
     8        -0.314264137759215    1.186e-05    0.018553    0.000000    0.000000    0.000000
     9        -0.314264056163299    3.776e-06    0.018553    0.000000    0.000000    0.000000
    10        -0.314264086390126    1.264e-06    0.018553    0.000000    0.000000    0.000000
    11        -0.314264089308655    3.529e-07    0.018553    0.000000    0.000000    0.000000
    12        -0.314264099738252    1.089e-07    0.018553    0.000000    0.000000    0.000000
    13        -0.314264099446512    3.096e-08    0.018553    0.000000    0.000000    0.000000
    13        -0.314264099446512    3.096e-08    0.018553    0.000000    0.000000    0.000000

    Iterations converged.

    CCSD corr. energy   =   -0.314264099446512
    PPL corr. energy    =    0.074082865056118
    OS PPL corr. energy =    0.058371499874746
    SS PPL corr. energy =    0.015711365181372
    Largest TIA Amplitudes:
              5  38        -0.0235056919
              1   3         0.0185579430
              6  43        -0.0140318710
              1   5        -0.0125852182
              1   4         0.0091986665
              1   1        -0.0088347395
              4  30        -0.0079318417
              5  39        -0.0068292838
              1   0        -0.0063946325
              3  18        -0.0057688836

    Largest Tia Amplitudes:
              4  39        -0.0316375542
              4  40        -0.0191404995
              3  27         0.0150498575
              5  44        -0.0148274900
              3  30        -0.0120640957
              1   2        -0.0111561023
              1   3         0.0102007327
              1   5        -0.0096109733
              1   4         0.0074333352
              3  31        -0.0064754900

    Largest TIJAB Amplitudes:
      2   1  43  26         0.0356023426
      3   1  38  26         0.0343433034
      6   5  10   2         0.0246090653

      * MP2 total energy                      = -918.851698645961733
      * CCSD total energy                     = -918.880082778344786
*** Psi4 exiting successfully. Buy a developer a beer!
