                               Psi4 1.4a3.dev88

  ==> Input File <==

--------------------------------------------------------------------------
# Any line starting with the # character is a comment line
memory 250000 mb
molecule molecule{
-1 3
P          0.0000000000        0.0000000000        0.0000000000
}

set {
  reference uhf
  basis aug-cc-pV(Q+d)Z
  scf_type OUT_OF_CORE
  freeze_core true
}

energy('ccsd(t)')
--------------------------------------------------------------------------

    Molecular point group: d2h
    Geometry (in Angstrom), charge = -1, multiplicity = 3:

       Center              X                  Y                   Z               Mass
    ------------   -----------------  -----------------  -----------------  -----------------
         P            0.000000000000     0.000000000000     0.000000000000    30.973761998420

  Charge       = -1
  Multiplicity = 3
  Basis Set: AUG-CC-PV(Q+D)Z
    Blend: AUG-CC-PV(Q+D)Z

    Orbital Energies [Eh]
    ---------------------

    Alpha Occupied:

       1Ag   -79.700985     2Ag    -7.241484     1B3u   -5.142423
       1B1u   -5.142423     1B2u   -5.129692     3Ag    -0.530198
       2B3u   -0.123255     2B1u   -0.123255     2B2u   -0.066398

    Alpha Virtual:

       3B3u    0.204800     3B1u    0.204800     3B2u    0.214723
       4Ag     0.225929     1B2g    0.320161     5Ag     0.320161
       1B3g    0.329750     1B1g    0.329750     6Ag     0.333765
       4B3u    0.555593     4B1u    0.555594     4B2u    0.582571
       5B3u    0.620015     5B1u    0.620015     7Ag     0.624192
       2B2g    0.625890     8Ag     0.625890     1Au     0.630658
       5B2u    0.630658     6B1u    0.637914     6B3u    0.637914
       6B2u    0.640799     2B1g    0.652113     2B3g    0.652113
       9Ag     0.663552     3B2g    1.300258    10Ag     1.300258
       3B1g    1.327243     3B3g    1.327243    11Ag     1.337410
       4B2g    1.452161    12Ag     1.452161     7B1u    1.457796
       7B3u    1.457796     4B3g    1.466099     4B1g    1.466099
       5B2g    1.476457    13Ag     1.476457     2Au     1.479037
       7B2u    1.479037     5B3g    1.482853     5B1g    1.482853
      14Ag     1.485018     8B3u    1.491598     8B1u    1.491598
       8B2u    1.496055     9B3u    1.590672     9B1u    1.590672
       9B2u    1.626829    15Ag     1.935853    16Ag     2.757104
       6B2g    2.757104     6B3g    2.779850     6B1g    2.779850
      17Ag     2.788337    10B1u    3.284020    10B3u    3.284020
       3Au     3.306022    10B2u    3.306022    11B1u    3.319623
      11B3u    3.319623    11B2u    3.324234    18Ag     3.555586
       7B2g    3.555586     7B3g    3.574370     7B1g    3.574370
      19Ag     3.588131     8B2g    3.588131     8B3g    3.596535
       8B1g    3.596535    20Ag     3.599362    12B1u    5.851851
      12B3u    5.851851    12B2u    5.882920    21Ag     7.866334
       9B2g    7.866334     9B3g    7.880702     9B1g    7.880702
      22Ag     7.885607    23Ag    12.952664

    Beta Occupied:

       1Ag   -79.689252     2Ag    -7.227934     1B2u   -5.120182
       1B1u   -5.110777     1B3u   -5.110777     3Ag    -0.351318
       2B2u   -0.025068

    Beta Virtual:

       2B3u    0.188918     2B1u    0.188918     3B2u    0.219699
       4Ag     0.233785     3B1u    0.300476     3B3u    0.300476
       5Ag     0.336560     1B1g    0.336939     1B3g    0.336939
       6Ag     0.338497     1B2g    0.338497     4B2u    0.596459
       4B1u    0.621939     4B3u    0.621939     5B3u    0.636092
       5B1u    0.636092     5B2u    0.640555     1Au     0.640555
       6B3u    0.644237     6B1u    0.644237     6B2u    0.644553
       7Ag     0.656582     8Ag     0.698708     2B3g    0.702518
       2B1g    0.702518     9Ag     0.716563     2B2g    0.716563
      10Ag     1.365455     3B3g    1.365986     3B1g    1.365986
      11Ag     1.367792     3B2g    1.367792     4B2g    1.477860
      12Ag     1.477860     4B3g    1.485300     4B1g    1.485300
      13Ag     1.490668     5B2g    1.490668     5B3g    1.493910
       5B1g    1.493910    14Ag     1.494994     7B1u    1.512105
       7B3u    1.512105     7B2u    1.516714     2Au     1.516714
       8B1u    1.519028     8B3u    1.519028     8B2u    1.519717
       9B2u    1.642313     9B1u    1.648192     9B3u    1.648192
      15Ag     1.969516    16Ag     2.785619     6B2g    2.785619
       6B3g    2.796483     6B1g    2.796483    17Ag     2.800164
      10B1u    3.331939    10B3u    3.331939    10B2u    3.339720
       3Au     3.339720    11B1u    3.344390    11B3u    3.344390
      11B2u    3.345944    18Ag     3.597833     7B2g    3.597833
       7B3g    3.606828     7B1g    3.606828    19Ag     3.613317
       8B2g    3.613317     8B3g    3.617235     8B1g    3.617235
      20Ag     3.618544    12B1u    5.883214    12B3u    5.883214
      12B2u    5.892908    21Ag     7.882096     9B2g    7.882096
       9B3g    7.890282     9B1g    7.890282    22Ag     7.893053
      23Ag    12.969292

    Final Occupation by Irrep:
             Ag   B1g   B2g   B3g    Au   B1u   B2u   B3u
    DOCC [     3,    0,    0,    0,    0,    1,    2,    1 ]
    SOCC [     0,    0,    0,    0,    0,    1,    0,    1 ]

  @UHF Final Energy:  -340.70688133039300

   => Energetics <=

    Nuclear Repulsion Energy =              0.0000000000000000
    One-Electron Energy =                -475.5783403620481522
    Two-Electron Energy =                 134.8714590316551494
    Total Energy =                       -340.7068813303930028

  UHF NO Occupations:
  HONO-2 :    2B2u 1.9922522
  HONO-1 :    2B3u 1.0000000
  HONO-0 :    2B1u 1.0000000
  LUNO+0 :    3B2u 0.0077478
  LUNO+1 :    4 Ag 0.0058969
  LUNO+2 :    3B3u 0.0000022
  LUNO+3 :    3B1u 0.0000022

Computation Completed

Properties will be evaluated at   0.000000,   0.000000,   0.000000 [a0]

Properties computed using the SCF density matrix

  Nuclear Dipole Moment: [e a0]
     X:     0.0000      Y:     0.0000      Z:     0.0000

  Electronic Dipole Moment: [e a0]
     X:     0.0000      Y:     0.0000      Z:     0.0000

  Dipole Moment: [e a0]
     X:     0.0000      Y:     0.0000      Z:     0.0000     Total:     0.0000

  Dipole Moment: [D]
     X:     0.0000      Y:     0.0000      Z:     0.0000     Total:     0.0000

*** tstop() called on l43 at Wed Jan 20 21:04:29 2021
Module time:
	user time   =       6.37 seconds =       0.11 minutes
	system time =       1.43 seconds =       0.02 minutes
	total time  =          6 seconds =       0.10 minutes
Total time:
	user time   =       6.37 seconds =       0.11 minutes
	system time =       1.43 seconds =       0.02 minutes
	total time  =          6 seconds =       0.10 minutes

*** tstart() called on l43
*** at Wed Jan 20 21:04:29 2021

	Wfn Parameters:
	--------------------
	Wavefunction         = CCSD_T
	Number of irreps     = 8
	Number of MOs        = 89
	Number of active MOs = 84
	AO-Basis             = NONE
	Semicanonical        = false
	Reference            = UHF
	Print Level          = 1

	IRREP	# MOs	# FZDC	# DOCC	# SOCC	# VIRT	# FZVR
	-----	-----	------	------	------	------	------
	 Ag	   23	    2	    1	    0	    20	    0
	 B1g	   9	    0	    0	    0	    9	    0
	 B2g	   9	    0	    0	    0	    9	    0
	 B3g	   9	    0	    0	    0	    9	    0
	 Au	   3	    0	    0	    0	    3	    0
	 B1u	   12	    1	    0	    1	    10	    0
	 B2u	   12	    1	    1	    0	    10	    0
	 B3u	   12	    1	    0	    1	    10	    0
	Transforming integrals...
	IWL integrals will be deleted.
	(OO|OO)...
	Presorting SO-basis two-electron integrals.
	Sorting File: SO Ints (nn|nn) nbuckets = 1
	Constructing frozen core operators
	Starting AA/AB first half-transformation.
	Sorting AA/AB half-transformed integrals.
	Starting BB first half-transformation.
	Sorting BB half-transformed integrals.
	First half integral transformation complete.
	Starting AA second half-transformation.
	Starting AB second half-transformation.
	Starting BB second half-transformation.
	Two-electron integral transformation complete.
	(OO|OV)...
	Starting AA second half-transformation.
	Starting AB second half-transformation.
	Starting BB second half-transformation.
	Two-electron integral transformation complete.
	(OO|VV)...
	Starting AA second half-transformation.
	Starting AB second half-transformation.
	Starting BB second half-transformation.
	Two-electron integral transformation complete.
	(OV|OO)...
	Starting AA/AB first half-transformation.
	Sorting AA/AB half-transformed integrals.
	Starting BB first half-transformation.
	Sorting BB half-transformed integrals.
	First half integral transformation complete.
	Starting AA second half-transformation.
	Starting AB second half-transformation.
	Starting BB second half-transformation.
	Two-electron integral transformation complete.
	(OV|OV)...
	Starting AA second half-transformation.
	Starting AB second half-transformation.
	Starting BB second half-transformation.
	Two-electron integral transformation complete.
	(OV|VV)...
	Starting AA second half-transformation.
	Starting AB second half-transformation.
	Starting BB second half-transformation.
	Two-electron integral transformation complete.
	(VV|OO)...
	Starting AA/AB first half-transformation.
	Sorting AA/AB half-transformed integrals.
	Starting BB first half-transformation.
	Sorting BB half-transformed integrals.
	First half integral transformation complete.
	Starting AA second half-transformation.
	Starting AB second half-transformation.
	Starting BB second half-transformation.
	Two-electron integral transformation complete.
	(VV|OV)...
	Starting AA second half-transformation.
	Starting AB second half-transformation.
	Starting BB second half-transformation.
	Two-electron integral transformation complete.
	(VV|VV)...
	Starting AA second half-transformation.
	Starting AB second half-transformation.
	Starting BB second half-transformation.
	Two-electron integral transformation complete.
	Frozen core energy     =   -334.36243250634539

	Size of irrep 0 of <AB|CD> integrals:      0.190 (MW) /      1.521 (MB)
	Size of irrep 1 of <AB|CD> integrals:      0.153 (MW) /      1.223 (MB)
	Size of irrep 2 of <AB|CD> integrals:      0.153 (MW) /      1.223 (MB)
	Size of irrep 3 of <AB|CD> integrals:      0.153 (MW) /      1.223 (MB)
	Size of irrep 4 of <AB|CD> integrals:      0.109 (MW) /      0.871 (MB)
	Size of irrep 5 of <AB|CD> integrals:      0.166 (MW) /      1.325 (MB)
	Size of irrep 6 of <AB|CD> integrals:      0.166 (MW) /      1.325 (MB)
	Size of irrep 7 of <AB|CD> integrals:      0.166 (MW) /      1.325 (MB)
	Total:                                     1.255 (MW) /     10.037 (MB)

	Size of irrep 0 of <ab|cd> integrals:      0.208 (MW) /      1.663 (MB)
	Size of irrep 1 of <ab|cd> integrals:      0.163 (MW) /      1.306 (MB)
	Size of irrep 2 of <ab|cd> integrals:      0.170 (MW) /      1.358 (MB)
	Size of irrep 3 of <ab|cd> integrals:      0.163 (MW) /      1.306 (MB)
	Size of irrep 4 of <ab|cd> integrals:      0.121 (MW) /      0.969 (MB)
	Size of irrep 5 of <ab|cd> integrals:      0.190 (MW) /      1.521 (MB)
	Size of irrep 6 of <ab|cd> integrals:      0.181 (MW) /      1.445 (MB)
	Size of irrep 7 of <ab|cd> integrals:      0.190 (MW) /      1.521 (MB)
	Total:                                     1.386 (MW) /     11.088 (MB)

	Size of irrep 0 of <Ab|Cd> integrals:      0.945 (MW) /      7.558 (MB)
	Size of irrep 1 of <Ab|Cd> integrals:      0.632 (MW) /      5.056 (MB)
	Size of irrep 2 of <Ab|Cd> integrals:      0.643 (MW) /      5.146 (MB)
	Size of irrep 3 of <Ab|Cd> integrals:      0.632 (MW) /      5.056 (MB)
	Size of irrep 4 of <Ab|Cd> integrals:      0.460 (MW) /      3.677 (MB)
	Size of irrep 5 of <Ab|Cd> integrals:      0.711 (MW) /      5.685 (MB)
	Size of irrep 6 of <Ab|Cd> integrals:      0.692 (MW) /      5.538 (MB)
	Size of irrep 7 of <Ab|Cd> integrals:      0.711 (MW) /      5.685 (MB)
	Total:                                     5.425 (MW) /     43.402 (MB)

	Size of irrep 0 of <IA|BC> integrals:      0.048 (MW) /      0.381 (MB)
	Size of irrep 1 of <IA|BC> integrals:      0.025 (MW) /      0.200 (MB)
	Size of irrep 2 of <IA|BC> integrals:      0.025 (MW) /      0.200 (MB)
	Size of irrep 3 of <IA|BC> integrals:      0.025 (MW) /      0.200 (MB)
	Size of irrep 4 of <IA|BC> integrals:      0.020 (MW) /      0.158 (MB)
	Size of irrep 5 of <IA|BC> integrals:      0.039 (MW) /      0.313 (MB)
	Size of irrep 6 of <IA|BC> integrals:      0.039 (MW) /      0.313 (MB)
	Size of irrep 7 of <IA|BC> integrals:      0.039 (MW) /      0.313 (MB)
	Total:                                     0.260 (MW) /      2.078 (MB)

	Size of irrep 0 of <ia|bc> integrals:      0.030 (MW) /      0.239 (MB)
	Size of irrep 1 of <ia|bc> integrals:      0.016 (MW) /      0.129 (MB)
	Size of irrep 2 of <ia|bc> integrals:      0.010 (MW) /      0.079 (MB)
	Size of irrep 3 of <ia|bc> integrals:      0.016 (MW) /      0.129 (MB)
	Size of irrep 4 of <ia|bc> integrals:      0.008 (MW) /      0.067 (MB)
	Size of irrep 5 of <ia|bc> integrals:      0.017 (MW) /      0.140 (MB)
	Size of irrep 6 of <ia|bc> integrals:      0.025 (MW) /      0.204 (MB)
	Size of irrep 7 of <ia|bc> integrals:      0.017 (MW) /      0.140 (MB)
	Total:                                     0.141 (MW) /      1.126 (MB)

	Size of irrep 0 of <Ia|Bc> integrals:      0.051 (MW) /      0.404 (MB)
	Size of irrep 1 of <Ia|Bc> integrals:      0.026 (MW) /      0.210 (MB)
	Size of irrep 2 of <Ia|Bc> integrals:      0.027 (MW) /      0.218 (MB)
	Size of irrep 3 of <Ia|Bc> integrals:      0.026 (MW) /      0.210 (MB)
	Size of irrep 4 of <Ia|Bc> integrals:      0.020 (MW) /      0.163 (MB)
	Size of irrep 5 of <Ia|Bc> integrals:      0.041 (MW) /      0.330 (MB)
	Size of irrep 6 of <Ia|Bc> integrals:      0.040 (MW) /      0.319 (MB)
	Size of irrep 7 of <Ia|Bc> integrals:      0.041 (MW) /      0.330 (MB)
	Total:                                     0.273 (MW) /      2.185 (MB)

	Size of irrep 0 of <iA|bC> integrals:      0.029 (MW) /      0.233 (MB)
	Size of irrep 1 of <iA|bC> integrals:      0.015 (MW) /      0.121 (MB)
	Size of irrep 2 of <iA|bC> integrals:      0.010 (MW) /      0.077 (MB)
	Size of irrep 3 of <iA|bC> integrals:      0.015 (MW) /      0.121 (MB)
	Size of irrep 4 of <iA|bC> integrals:      0.008 (MW) /      0.065 (MB)
	Size of irrep 5 of <iA|bC> integrals:      0.016 (MW) /      0.128 (MB)
	Size of irrep 6 of <iA|bC> integrals:      0.025 (MW) /      0.200 (MB)
	Size of irrep 7 of <iA|bC> integrals:      0.016 (MW) /      0.128 (MB)
	Total:                                     0.134 (MW) /      1.073 (MB)

	Size of irrep 0 of tIjAb amplitudes:       0.002 (MW) /      0.016 (MB)
	Size of irrep 1 of tIjAb amplitudes:       0.001 (MW) /      0.006 (MB)
	Size of irrep 2 of tIjAb amplitudes:       0.000 (MW) /      0.000 (MB)
	Size of irrep 3 of tIjAb amplitudes:       0.001 (MW) /      0.006 (MB)
	Size of irrep 4 of tIjAb amplitudes:       0.000 (MW) /      0.000 (MB)
	Size of irrep 5 of tIjAb amplitudes:       0.001 (MW) /      0.007 (MB)
	Size of irrep 6 of tIjAb amplitudes:       0.002 (MW) /      0.013 (MB)
	Size of irrep 7 of tIjAb amplitudes:       0.001 (MW) /      0.007 (MB)
	Total:                                     0.007 (MW) /      0.055 (MB)

	Nuclear Rep. energy          =      0.00000000000000
	SCF energy                   =   -340.70688133039300
	One-electron energy          =    -11.46940550233789
	Two-electron (AA) energy     =      1.88236435888001
	Two-electron (BB) energy     =      0.28407353510220
	Two-electron (AB) energy     =      2.95851878430803
	Two-electron energy          =      5.12495667829024
	Reference energy             =   -340.70688133039306

*** tstop() called on l43 at Wed Jan 20 21:04:31 2021
Module time:
	user time   =       0.99 seconds =       0.02 minutes
	system time =       0.56 seconds =       0.01 minutes
	total time  =          2 seconds =       0.03 minutes
Total time:
	user time   =       7.36 seconds =       0.12 minutes
	system time =       1.99 seconds =       0.03 minutes
	total time  =          8 seconds =       0.13 minutes
            **************************
            *                        *
            *        CCENERGY        *
            *                        *
            **************************

    Nuclear Rep. energy (wfn)     =    0.000000000000000
    SCF energy          (wfn)     = -340.706881330393003
    Reference energy    (file100) = -340.706881330393060

    Input parameters:
    -----------------
    Wave function   =     CCSD_T
    Reference wfn   =     UHF
    Brueckner       =     No
    Memory (Mbytes) =     250000.0
    Maxiter         =     50
    R_Convergence   =     1.0e-07
    E_Convergence   =     1.0e-06
    Restart         =     Yes
    DIIS            =     Yes
    AO Basis        =     NONE
    ABCD            =     NEW
    Cache Level     =     2
    Cache Type      =     LRU
    Print Level     =     1
    Num. of threads =     48
    # Amps to Print =     10
    Print MP2 Amps? =     No
    Analyze T2 Amps =     No
    Print Pair Ener =     No
    Local CC        =     No
    SCS-MP2         =     False
    SCSN-MP2        =     False
    SCS-CCSD        =     False

MP2 correlation energy -0.1213939216799050
                Solving CC Amplitude Equations
                ------------------------------
  Iter             Energy              RMS        T1Diag      D1Diag    New D1Diag    D2Diag
  ----     ---------------------    ---------   ----------  ----------  ----------   --------
     0        -0.121393921679905    0.000e+00    0.000000    0.000000    0.000000    0.000000
     1        -0.134371452334390    5.152e-02    0.010991    0.000000    0.000000    0.000000
     2        -0.139249522463492    1.948e-02    0.016734    0.000000    0.000000    0.000000
     3        -0.139693707355559    7.031e-03    0.019260    0.000000    0.000000    0.000000
     4        -0.139735743470761    3.447e-03    0.020568    0.000000    0.000000    0.000000
     5        -0.139713839184227    1.681e-03    0.021097    0.000000    0.000000    0.000000
     6        -0.139718048822169    7.140e-04    0.021301    0.000000    0.000000    0.000000
     7        -0.139724241736723    2.670e-04    0.021299    0.000000    0.000000    0.000000
     8        -0.139724258048708    1.266e-04    0.021293    0.000000    0.000000    0.000000
     9        -0.139723754293161    4.519e-05    0.021287    0.000000    0.000000    0.000000
    10        -0.139723933379972    1.674e-05    0.021283    0.000000    0.000000    0.000000
    11        -0.139724006392330    5.734e-06    0.021283    0.000000    0.000000    0.000000
    12        -0.139724072177036    2.199e-06    0.021283    0.000000    0.000000    0.000000
    13        -0.139724061201114    8.793e-07    0.021282    0.000000    0.000000    0.000000
    14        -0.139724052029567    3.392e-07    0.021282    0.000000    0.000000    0.000000
    15        -0.139724047666321    1.395e-07    0.021282    0.000000    0.000000    0.000000
    16        -0.139724047649313    4.030e-08    0.021282    0.000000    0.000000    0.000000

    Iterations converged.

    Largest TIA Amplitudes:
              1  50        -0.0158788101
              3  70        -0.0158788099
              0   3        -0.0077345909
              0   5         0.0070381616
              2  61         0.0068693641
              2  60         0.0052926664
              0   2        -0.0049356864
              2  66        -0.0041729295
              2  63        -0.0040011458
              0   7        -0.0033315402

    Largest Tia Amplitudes:
              0   4         0.0256070800
              1  61        -0.0196894198
              0   1         0.0191613099
              1  62         0.0133881071
              0   0        -0.0094480064

      * MP2 total energy                      = -340.828275252072956
      * CCSD total energy                     = -340.846605378042398
      * CCSD(T) total energy                     = -340.853936130188970
*** Psi4 exiting successfully. Buy a developer a beer!
