                               Psi4 1.2a1.dev938

  ==> Input File <==

--------------------------------------------------------------------------
# Any line starting with the # character is a comment line
memory 250000 mb
molecule molecule{
-1 2
Cl         0.0000000000        0.0000000000        1.2856110301
Cl         0.0000000000        0.0000000000       -1.2856110301
}

set {
  reference uhf
  basis aug-cc-pv(q+d)z
  scf_type OUT_OF_CORE
  freeze_core true
}

energy('ccsd')
--------------------------------------------------------------------------

    Molecular point group: d2h

    Geometry (in Angstrom), charge = -1, multiplicity = 2:

       Center              X                  Y                   Z               Mass
    ------------   -----------------  -----------------  -----------------  -----------------
          CL          0.000000000000     0.000000000000     1.285611030100    34.968852682000
          CL          0.000000000000     0.000000000000    -1.285611030100    34.968852682000

  Charge       = -1
  Multiplicity = 2
  Basis Set: AUG-CC-PV(Q+D)Z
    Blend: AUG-CC-PV(Q+D)Z

    Orbital Energies (a.u.)
    -----------------------

    Alpha Occupied:

       1B1u -104.605078     1Ag  -104.605077     2B1u  -10.328937
       2Ag   -10.328930     3Ag    -7.806289     3B1u   -7.806283
       1B2g   -7.792318     1B3g   -7.792318     1B3u   -7.792310
       1B2u   -7.792310     4Ag    -0.876248     4B1u   -0.825719
       5Ag    -0.342194     2B3u   -0.259672     2B2u   -0.259672
       2B2g   -0.218212     2B3g   -0.218212     5B1u   -0.195660

    Alpha Virtual:

       6B1u    0.185258     6Ag     0.232304     3B3u    0.239189
       3B2u    0.239189     3B2g    0.252016     3B3g    0.252016
       7Ag     0.295382     7B1u    0.368779     1B1g    0.417110
       8Ag     0.417110     4B2u    0.455677     4B3u    0.455677
       8B1u    0.472457     9B1u    0.482652     1Au     0.482652
       9Ag     0.510141     4B3g    0.536253     4B2g    0.536253
       5B3u    0.664304     5B2u    0.664304     5B2g    0.735644
       5B3g    0.735644    10Ag     0.752479    10B1u    0.774087
       6B3u    0.806966     6B2u    0.806966    11Ag     0.809154
      12Ag     0.844710    13Ag     0.850893     2B1g    0.850893
      11B1u    0.886866     2Au     0.886866    12B1u    0.918366
       6B2g    0.922662     6B3g    0.922662     7B3u    0.987753
       7B2u    0.987753     3B1g    0.988180    14Ag     0.988180
       7B3g    1.071531     7B2g    1.071531    13B1u    1.124288
       8B3u    1.154971     8B2u    1.154971     3Au     1.216460
      14B1u    1.216460    15Ag     1.324128     8B2g    1.378068
       8B3g    1.378068    15B1u    1.440949    16Ag     1.806702
       4B1g    1.806702     9B3u    1.812817     9B2u    1.812817
      16B1u    1.854527     4Au     1.854527    17Ag     1.856803
      17B1u    1.892974    10B3u    1.944615    10B2u    1.944615
       9B2g    1.959049     9B3g    1.959049    11B3u    1.982816
      11B2u    1.982816    18Ag     1.990716     5B1g    1.990716
      10B2g    2.003782    10B3g    2.003782    19Ag     2.009388
      20Ag     2.066198     6B1g    2.066198    12B3u    2.079626
      12B2u    2.079626     5Au     2.108326    18B1u    2.108326
      21Ag     2.165785    11B3g    2.214122    11B2g    2.214122
      19B1u    2.263897    13B2u    2.271927    13B3u    2.271927
       7B1g    2.291939    22Ag     2.291939    12B3g    2.322370
      12B2g    2.322370     6Au     2.349652    20B1u    2.349652
      21B1u    2.461998    13B2g    2.476832    13B3g    2.476832
      23Ag     2.515470    14B3u    2.548527    14B2u    2.548527
      22B1u    2.549562     7Au     2.549562    14B2g    2.927807
      14B3g    2.927807    24Ag     3.179996    23B1u    3.194067
      24B1u    3.400419    25Ag     3.975343     8B1g    3.975343
      15B3u    4.009913    15B2u    4.009913     8Au     4.013449
      25B1u    4.013449    15B2g    4.177301    15B3g    4.177301
      26B1u    4.185278    26Ag     4.350843     9B1g    4.883935
      27Ag     4.883935    16B3u    4.902949    16B2u    4.902949
      17B3u    4.903051    17B2u    4.903051    18B3u    4.926321
      18B2u    4.926321    28Ag     4.943988    10B1g    4.943988
      16B3g    4.946962    16B2g    4.946962     9Au     4.966871
      27B1u    4.966871    28B1u    4.977441    29Ag     4.988882
      11B1g    4.988882    29B1u    4.993849    10Au     4.993849
      30Ag     5.000125    17B3g    5.022032    17B2g    5.022032
      18B2g    5.112268    18B3g    5.112268    30B1u    5.127704
      11Au     5.127704    19B2g    5.184613    19B3g    5.184613
      19B3u    5.212460    19B2u    5.212460    31B1u    5.300656
      31Ag     5.317129    20B3u    6.325968    20B2u    6.325968
      32Ag     6.422808    20B2g    6.446164    20B3g    6.446164
      32B1u    7.587512    33Ag    11.608134    12B1g   11.608134
      21B3u   11.627988    21B2u   11.627988    12Au    11.633627
      33B1u   11.633627    21B2g   11.746870    21B3g   11.746870
      34B1u   11.778436    34Ag    11.856646    35Ag    23.480830
      35B1u   24.019596

    Beta Occupied:

       1Ag  -104.597386     1B1u -104.597385     2Ag   -10.320690
       2B1u  -10.320647     1B3g   -7.787481     1B2g   -7.787481
       1B2u   -7.787481     1B3u   -7.787481     3Ag    -7.776286
       3B1u   -7.776267     4Ag    -0.813348     4B1u   -0.754071
       2B2u   -0.245463     2B3u   -0.245463     2B3g   -0.202969
       2B2g   -0.202969     5Ag    -0.188449

    Beta Virtual:

       5B1u    0.167909     6B1u    0.221357     6Ag     0.234448
       3B2u    0.239915     3B3u    0.239915     3B3g    0.252796
       3B2g    0.252796     7Ag     0.297087     7B1u    0.377039
       1B1g    0.415861     8Ag     0.415861     4B3u    0.460204
       4B2u    0.460204     8B1u    0.481738     1Au     0.481738
       9B1u    0.488920     9Ag     0.521217     4B2g    0.543726
       4B3g    0.543726     5B2u    0.667110     5B3u    0.667110
       5B3g    0.738606     5B2g    0.738606    10Ag     0.769049
      10B1u    0.790980     6B2u    0.826048     6B3u    0.826048
      11Ag     0.843695    12Ag     0.853515     2B1g    0.853515
      13Ag     0.864972    11B1u    0.889476     2Au     0.889476
       6B3g    0.959455     6B2g    0.959455    12B1u    0.964570
       7B3u    0.986564     7B2u    0.986564     3B1g    0.988538
      14Ag     0.988538     7B3g    1.070478     7B2g    1.070478
      13B1u    1.136104     8B2u    1.162742     8B3u    1.162742
       3Au     1.219832    14B1u    1.219832    15Ag     1.339015
       8B3g    1.389719     8B2g    1.389719    15B1u    1.459641
      16Ag     1.810063     4B1g    1.810063     9B2u    1.839822
       9B3u    1.839822    16B1u    1.858746     4Au     1.858746
      17Ag     1.882311    17B1u    1.927057    10B2u    1.947025
      10B3u    1.947025     9B3g    1.974907     9B2g    1.974907
      11B3u    1.983988    11B2u    1.983988    18Ag     1.993138
       5B1g    1.993138    10B3g    2.010961    10B2g    2.010961
      19Ag     2.043292     6B1g    2.065387    20Ag     2.065387
      12B2u    2.085970    12B3u    2.085970     5Au     2.107564
      18B1u    2.107564    21Ag     2.180977    11B2g    2.217361
      11B3g    2.217361    13B3u    2.273072    13B2u    2.273072
      19B1u    2.281914     7B1g    2.303710    22Ag     2.303710
      12B3g    2.322657    12B2g    2.322657     6Au     2.361239
      20B1u    2.361239    21B1u    2.482362    13B3g    2.497315
      13B2g    2.497315    23Ag     2.538456    22B1u    2.555565
       7Au     2.555565    14B2u    2.563127    14B3u    2.563127
      14B2g    2.937344    14B3g    2.937344    24Ag     3.186707
      23B1u    3.209555    24B1u    3.418501    25Ag     3.977467
       8B1g    3.977467     8Au     4.015199    25B1u    4.015199
      15B2u    4.020158    15B3u    4.020158    15B3g    4.185659
      15B2g    4.185659    26B1u    4.203183    26Ag     4.364106
       9B1g    4.900833    27Ag     4.900833    16B3u    4.909685
      16B2u    4.909685    17B2u    4.925057    17B3u    4.925057
      18B3u    4.931368    18B2u    4.931368    10B1g    4.945145
      28Ag     4.945145    16B3g    4.952508    16B2g    4.952508
       9Au     4.968050    27B1u    4.968050    28B1u    4.998292
      29Ag     5.000692    11B1g    5.000692    29B1u    5.009921
      10Au     5.009921    30Ag     5.023019    17B3g    5.028162
      17B2g    5.028162    18B3g    5.131373    18B2g    5.131373
      30B1u    5.140021    11Au     5.140021    19B3g    5.202813
      19B2g    5.202813    19B2u    5.228144    19B3u    5.228144
      31B1u    5.320701    31Ag     5.336922    20B2u    6.331389
      20B3u    6.331389    20B3g    6.451668    20B2g    6.451669
      32Ag     6.452156    32B1u    7.610556    33Ag    11.610156
      12B1g   11.610156    12Au    11.635587    33B1u   11.635587
      21B2u   11.636662    21B3u   11.636662    21B3g   11.755403
      21B2g   11.755403    34B1u   11.789404    34Ag    11.866958
      35Ag    23.489422    35B1u   24.027899

    Final Occupation by Irrep:
             Ag   B1g   B2g   B3g    Au   B1u   B2u   B3u
    DOCC [     5,    0,    2,    2,    0,    4,    2,    2 ]
    SOCC [     0,    0,    0,    0,    0,    1,    0,    0 ]

  Energy converged.

  @UHF Final Energy:  -919.08643646472296

   => Energetics <=

    Nuclear Repulsion Energy =             59.4784152056529294
    One-Electron Energy =               -1398.0929461355099193
    Two-Electron Energy =                 419.5280944651339610
    PCM Polarization Energy =               0.0000000000000000
    Total Energy =                       -919.0864364647229650

    Alert: EFP and PCM quantities not currently incorporated into SCF psivars.
  UHF NO Occupations:
  HONO-2 :    4B1u 1.9984889
  HONO-1 :    5 Ag 1.9925776
  HONO-0 :    5B1u 1.0000000
  LUNO+0 :    6 Ag 0.0074224
  LUNO+1 :    6B1u 0.0015111
  LUNO+2 :    7 Ag 0.0009888
  LUNO+3 :    3B2g 0.0003268

Properties will be evaluated at   0.000000,   0.000000,   0.000000 Bohr

Properties computed using the SCF density matrix

  Nuclear Dipole Moment: (a.u.)
     X:     0.0000      Y:     0.0000      Z:    -0.0000

  Electronic Dipole Moment: (a.u.)
     X:     0.0000      Y:     0.0000      Z:     0.0000

  Dipole Moment: (a.u.)
     X:     0.0000      Y:     0.0000      Z:    -0.0000     Total:     0.0000

  Dipole Moment: (Debye)
     X:     0.0000      Y:     0.0000      Z:    -0.0000     Total:     0.0000

*** tstop() called on cqc05 at Thu Aug 20 20:44:31 2020
Module time:
	user time   =      16.62 seconds =       0.28 minutes
	system time =       0.70 seconds =       0.01 minutes
	total time  =         17 seconds =       0.28 minutes
Total time:
	user time   =      16.62 seconds =       0.28 minutes
	system time =       0.70 seconds =       0.01 minutes
	total time  =         17 seconds =       0.28 minutes

*** tstart() called on cqc05
*** at Thu Aug 20 20:44:31 2020

	Wfn Parameters:
	--------------------
	Wavefunction         = CCSD
	Number of irreps     = 8
	Number of MOs        = 178
	Number of active MOs = 168
	AO-Basis             = NONE
	Semicanonical        = false
	Reference            = UHF
	Print Level          = 1

	IRREP	# MOs	# FZDC	# DOCC	# SOCC	# VIRT	# FZVR
	-----	-----	------	------	------	------	------
	 Ag	   35	    3	    2	    0	    30	    0
	 B1g	   12	    0	    0	    0	    12	    0
	 B2g	   21	    1	    1	    0	    19	    0
	 B3g	   21	    1	    1	    0	    19	    0
	 Au	   12	    0	    0	    0	    12	    0
	 B1u	   35	    3	    1	    1	    30	    0
	 B2u	   21	    1	    1	    0	    19	    0
	 B3u	   21	    1	    1	    0	    19	    0
	Transforming integrals...
	IWL integrals will be deleted.
	(OO|OO)...
	Presorting SO-basis two-electron integrals.
	Sorting File: SO Ints (nn|nn) nbuckets = 1
	Transforming the one-electron integrals and constructing Fock matrices
	Starting AA/AB first half-transformation.
	Sorting AA/AB half-transformed integrals.
	Starting BB first half-transformation.
	Sorting BB half-transformed integrals.
	First half integral transformation complete.
	Starting AA second half-transformation.
	Starting AB second half-transformation.
	Starting BB second half-transformation.
	Two-electron integral transformation complete.
	(OO|OV)...
	Starting AA second half-transformation.
	Starting AB second half-transformation.
	Starting BB second half-transformation.
	Two-electron integral transformation complete.
	(OO|VV)...
	Starting AA second half-transformation.
	Starting AB second half-transformation.
	Starting BB second half-transformation.
	Two-electron integral transformation complete.
	(OV|OO)...
	Starting AA/AB first half-transformation.
	Sorting AA/AB half-transformed integrals.
	Starting BB first half-transformation.
	Sorting BB half-transformed integrals.
	First half integral transformation complete.
	Starting AA second half-transformation.
	Starting AB second half-transformation.
	Starting BB second half-transformation.
	Two-electron integral transformation complete.
	(OV|OV)...
	Starting AA second half-transformation.
	Starting AB second half-transformation.
	Starting BB second half-transformation.
	Two-electron integral transformation complete.
	(OV|VV)...
	Starting AA second half-transformation.
	Starting AB second half-transformation.
	Starting BB second half-transformation.
	Two-electron integral transformation complete.
	(VV|OO)...
	Starting AA/AB first half-transformation.
	Sorting AA/AB half-transformed integrals.
	Starting BB first half-transformation.
	Sorting BB half-transformed integrals.
	First half integral transformation complete.
	Starting AA second half-transformation.
	Starting AB second half-transformation.
	Starting BB second half-transformation.
	Two-electron integral transformation complete.
	(VV|OV)...
	Starting AA second half-transformation.
	Starting AB second half-transformation.
	Starting BB second half-transformation.
	Two-electron integral transformation complete.
	(VV|VV)...
	Starting AA second half-transformation.
	Starting AB second half-transformation.
	Starting BB second half-transformation.
	Two-electron integral transformation complete.
	Frozen core energy     =   -938.88821464278976

	Size of irrep 0 of <AB|CD> integrals:      2.843 (MW) /     22.741 (MB)
	Size of irrep 1 of <AB|CD> integrals:      2.079 (MW) /     16.635 (MB)
	Size of irrep 2 of <AB|CD> integrals:      2.547 (MW) /     20.378 (MB)
	Size of irrep 3 of <AB|CD> integrals:      2.547 (MW) /     20.378 (MB)
	Size of irrep 4 of <AB|CD> integrals:      2.079 (MW) /     16.635 (MB)
	Size of irrep 5 of <AB|CD> integrals:      3.119 (MW) /     24.950 (MB)
	Size of irrep 6 of <AB|CD> integrals:      2.547 (MW) /     20.378 (MB)
	Size of irrep 7 of <AB|CD> integrals:      2.547 (MW) /     20.378 (MB)
	Total:                                    20.309 (MW) /    162.472 (MB)

	Size of irrep 0 of <ab|cd> integrals:      2.945 (MW) /     23.557 (MB)
	Size of irrep 1 of <ab|cd> integrals:      2.114 (MW) /     16.913 (MB)
	Size of irrep 2 of <ab|cd> integrals:      2.608 (MW) /     20.866 (MB)
	Size of irrep 3 of <ab|cd> integrals:      2.608 (MW) /     20.866 (MB)
	Size of irrep 4 of <ab|cd> integrals:      2.114 (MW) /     16.913 (MB)
	Size of irrep 5 of <ab|cd> integrals:      3.226 (MW) /     25.805 (MB)
	Size of irrep 6 of <ab|cd> integrals:      2.608 (MW) /     20.866 (MB)
	Size of irrep 7 of <ab|cd> integrals:      2.608 (MW) /     20.866 (MB)
	Total:                                    20.831 (MW) /    166.651 (MB)

	Size of irrep 0 of <Ab|Cd> integrals:     12.688 (MW) /    101.503 (MB)
	Size of irrep 1 of <Ab|Cd> integrals:      8.387 (MW) /     67.095 (MB)
	Size of irrep 2 of <Ab|Cd> integrals:     10.311 (MW) /     82.484 (MB)
	Size of irrep 3 of <Ab|Cd> integrals:     10.311 (MW) /     82.484 (MB)
	Size of irrep 4 of <Ab|Cd> integrals:      8.387 (MW) /     67.095 (MB)
	Size of irrep 5 of <Ab|Cd> integrals:     12.688 (MW) /    101.503 (MB)
	Size of irrep 6 of <Ab|Cd> integrals:     10.311 (MW) /     82.484 (MB)
	Size of irrep 7 of <Ab|Cd> integrals:     10.311 (MW) /     82.484 (MB)
	Total:                                    83.391 (MW) /    667.131 (MB)

	Size of irrep 0 of <IA|BC> integrals:      0.692 (MW) /      5.538 (MB)
	Size of irrep 1 of <IA|BC> integrals:      0.358 (MW) /      2.861 (MB)
	Size of irrep 2 of <IA|BC> integrals:      0.511 (MW) /      4.086 (MB)
	Size of irrep 3 of <IA|BC> integrals:      0.511 (MW) /      4.086 (MB)
	Size of irrep 4 of <IA|BC> integrals:      0.358 (MW) /      2.861 (MB)
	Size of irrep 5 of <IA|BC> integrals:      0.692 (MW) /      5.538 (MB)
	Size of irrep 6 of <IA|BC> integrals:      0.511 (MW) /      4.086 (MB)
	Size of irrep 7 of <IA|BC> integrals:      0.511 (MW) /      4.086 (MB)
	Total:                                     4.143 (MW) /     33.141 (MB)

	Size of irrep 0 of <ia|bc> integrals:      0.600 (MW) /      4.800 (MB)
	Size of irrep 1 of <ia|bc> integrals:      0.326 (MW) /      2.606 (MB)
	Size of irrep 2 of <ia|bc> integrals:      0.459 (MW) /      3.669 (MB)
	Size of irrep 3 of <ia|bc> integrals:      0.459 (MW) /      3.669 (MB)
	Size of irrep 4 of <ia|bc> integrals:      0.326 (MW) /      2.606 (MB)
	Size of irrep 5 of <ia|bc> integrals:      0.603 (MW) /      4.828 (MB)
	Size of irrep 6 of <ia|bc> integrals:      0.459 (MW) /      3.669 (MB)
	Size of irrep 7 of <ia|bc> integrals:      0.459 (MW) /      3.669 (MB)
	Total:                                     3.690 (MW) /     29.516 (MB)

	Size of irrep 0 of <Ia|Bc> integrals:      0.705 (MW) /      5.642 (MB)
	Size of irrep 1 of <Ia|Bc> integrals:      0.359 (MW) /      2.873 (MB)
	Size of irrep 2 of <Ia|Bc> integrals:      0.517 (MW) /      4.136 (MB)
	Size of irrep 3 of <Ia|Bc> integrals:      0.517 (MW) /      4.136 (MB)
	Size of irrep 4 of <Ia|Bc> integrals:      0.359 (MW) /      2.873 (MB)
	Size of irrep 5 of <Ia|Bc> integrals:      0.705 (MW) /      5.642 (MB)
	Size of irrep 6 of <Ia|Bc> integrals:      0.517 (MW) /      4.136 (MB)
	Size of irrep 7 of <Ia|Bc> integrals:      0.517 (MW) /      4.136 (MB)
	Total:                                     4.197 (MW) /     33.573 (MB)

	Size of irrep 0 of <iA|bC> integrals:      0.591 (MW) /      4.730 (MB)
	Size of irrep 1 of <iA|bC> integrals:      0.324 (MW) /      2.595 (MB)
	Size of irrep 2 of <iA|bC> integrals:      0.453 (MW) /      3.622 (MB)
	Size of irrep 3 of <iA|bC> integrals:      0.453 (MW) /      3.622 (MB)
	Size of irrep 4 of <iA|bC> integrals:      0.324 (MW) /      2.595 (MB)
	Size of irrep 5 of <iA|bC> integrals:      0.591 (MW) /      4.730 (MB)
	Size of irrep 6 of <iA|bC> integrals:      0.453 (MW) /      3.622 (MB)
	Size of irrep 7 of <iA|bC> integrals:      0.453 (MW) /      3.622 (MB)
	Total:                                     3.642 (MW) /     29.138 (MB)

	Size of irrep 0 of tIjAb amplitudes:       0.036 (MW) /      0.285 (MB)
	Size of irrep 1 of tIjAb amplitudes:       0.012 (MW) /      0.093 (MB)
	Size of irrep 2 of tIjAb amplitudes:       0.022 (MW) /      0.180 (MB)
	Size of irrep 3 of tIjAb amplitudes:       0.022 (MW) /      0.180 (MB)
	Size of irrep 4 of tIjAb amplitudes:       0.012 (MW) /      0.093 (MB)
	Size of irrep 5 of tIjAb amplitudes:       0.036 (MW) /      0.285 (MB)
	Size of irrep 6 of tIjAb amplitudes:       0.022 (MW) /      0.180 (MB)
	Size of irrep 7 of tIjAb amplitudes:       0.022 (MW) /      0.180 (MB)
	Total:                                     0.184 (MW) /      1.475 (MB)

	Nuclear Rep. energy          =     59.47841520565293
	SCF energy                   =   -919.08643646472296
	One-electron energy          =    -73.50495068923067
	Two-electron (AA) energy     =      8.25585539677107
	Two-electron (BB) energy     =      6.04464609456345
	Two-electron (AB) energy     =     19.52781217030869
	Two-electron energy          =     33.82831366164322
	Reference energy             =   -919.08643646472433

*** tstop() called on cqc05 at Thu Aug 20 20:44:46 2020
Module time:
	user time   =       9.25 seconds =       0.15 minutes
	system time =       5.89 seconds =       0.10 minutes
	total time  =         15 seconds =       0.25 minutes
Total time:
	user time   =      25.87 seconds =       0.43 minutes
	system time =       6.59 seconds =       0.11 minutes
	total time  =         32 seconds =       0.53 minutes

*** tstart() called on cqc05
*** at Thu Aug 20 20:44:46 2020

            **************************
            *                        *
            *        CCENERGY        *
            *                        *
            **************************

    Nuclear Rep. energy (wfn)     =   59.478415205652929
    SCF energy          (wfn)     = -919.086436464722965
    Reference energy    (file100) = -919.086436464724329

    Input parameters:
    -----------------
    Wave function   =     CCSD
    Reference wfn   =     UHF
    Brueckner       =     No

      * MP2 total energy                      = -919.518534415441991
      * CCSD total energy                     = -919.548848885098892
*** Psi4 exiting successfully. Buy a developer a beer!
