                               Psi4 1.2a1.dev938

  ==> Input File <==

--------------------------------------------------------------------------
# Any line starting with the # character is a comment line
memory 250000 mb
molecule molecule{
-1 2
Cl         0.0000000000        0.0000000000        1.2856110301
Cl         0.0000000000        0.0000000000       -1.2856110301
}

set {
  reference uhf
  basis aug-cc-pv(5+d)z
  scf_type OUT_OF_CORE
  freeze_core true
}

energy('ccsd')
--------------------------------------------------------------------------

    Molecular point group: d2h

    Geometry (in Angstrom), charge = -1, multiplicity = 2:

       Center              X                  Y                   Z               Mass
    ------------   -----------------  -----------------  -----------------  -----------------
          CL          0.000000000000     0.000000000000     1.285611030100    34.968852682000
          CL          0.000000000000     0.000000000000    -1.285611030100    34.968852682000

  Charge       = -1
  Multiplicity = 2
  Basis Set: AUG-CC-PV(5+D)Z
    Blend: AUG-CC-PV(5+D)Z

    Orbital Energies (a.u.)
    -----------------------

    Alpha Occupied:

       1B1u -104.605424     1Ag  -104.605424     2B1u  -10.328838
       2Ag   -10.328831     3Ag    -7.806337     3B1u   -7.806330
       1B2g   -7.792350     1B3g   -7.792350     1B3u   -7.792342
       1B2u   -7.792342     4Ag    -0.876214     4B1u   -0.825689
       5Ag    -0.342164     2B3u   -0.259666     2B2u   -0.259666
       2B2g   -0.218204     2B3g   -0.218204     5B1u   -0.195644

    Alpha Virtual:

       6B1u    0.171462     6Ag     0.215408     3B3u    0.222761
       3B2u    0.222761     3B3g    0.234487     3B2g    0.234487
       7Ag     0.273022     7B1u    0.332003     8Ag     0.394897
       1B1g    0.394897     4B2u    0.434961     4B3u    0.434961
       8B1u    0.440334     9B1u    0.456323     1Au     0.456323
       9Ag     0.464350     4B3g    0.487392     4B2g    0.487392
       5B3u    0.582406     5B2u    0.582406     5B2g    0.639742
       5B3g    0.639742    10Ag     0.656708    10B1u    0.664627
      11Ag     0.694991     6B3u    0.754583     6B2u    0.754583
      12Ag     0.765817     7B2u    0.773386     7B3u    0.773386
      13Ag     0.780740     2B1g    0.780740    14Ag     0.832904
       3B1g    0.832904    11B1u    0.842242     2Au     0.842242
       6B2g    0.845636     6B3g    0.845636    12B1u    0.851130
       7B3g    0.858035     7B2g    0.858035    13B1u    0.937824
       8B3u    0.980293     8B2u    0.980293    14B1u    0.989047
       3Au     0.989047    15Ag     1.105820     8B2g    1.138565
       8B3g    1.138565    15B1u    1.250938     9B3u    1.481665
       9B2u    1.481665    16Ag     1.482114    17Ag     1.522998
       4B1g    1.522998     5B1g    1.558524    18Ag     1.558524
       9B2g    1.565663     9B3g    1.565663    10B3u    1.585015
      10B2u    1.585015    16B1u    1.595563     4Au     1.595563
      17B1u    1.608617    11B2u    1.612913    11B3u    1.612913
      19Ag     1.645866     6B1g    1.645866     5Au     1.655616
      18B1u    1.655616    20Ag     1.674283    10B2g    1.692418
      10B3g    1.692418    12B3u    1.712691    12B2u    1.712691
      11B3g    1.739973    11B2g    1.739973    13B3u    1.743754
      13B2u    1.743754     7B1g    1.777067    21Ag     1.777067
      12B3g    1.794654    12B2g    1.794654    19B1u    1.831387
      22Ag     1.845506    20B1u    1.871554     6Au     1.871554
      21B1u    1.942270    23Ag     1.943062    13B2g    1.981414
      13B3g    1.981414    14B3u    2.000328    14B2u    2.000328
      22B1u    2.035817     7Au     2.035817    14B3g    2.459469
      14B2g    2.459469    23B1u    2.494615    24Ag     2.556556
      24B1u    2.947554    15B2u    3.275303    15B3u    3.275303
      25Ag     3.283004     8B1g    3.341230    26Ag     3.341230
      16B2u    3.463989    16B3u    3.463989     9B1g    3.487265
      27Ag     3.487265    25B1u    3.500398    15B3g    3.513008
      15B2g    3.513008    17B2u    3.519294    17B3u    3.519294
      28Ag     3.523042    10B1g    3.523042    18B3u    3.528210
      18B2u    3.528210    26B1u    3.536224     8Au     3.536224
      19B3u    3.541418    19B2u    3.541418    27B1u    3.556235
       9Au     3.556235    16B3g    3.572463    16B2g    3.572463
      17B3g    3.607217    17B2g    3.607217    29Ag     3.617371
      30Ag     3.617641    11B1g    3.617641    31Ag     3.633930
      12B1g    3.633930    10Au     3.656315    28B1u    3.656315
      20B2u    3.662742    20B3u    3.662742    21B3u    3.667944
      21B2u    3.667944    18B3g    3.671861    18B2g    3.671861
      11Au     3.716011    29B1u    3.716011    32Ag     3.726461
      30B1u    3.729418    13B1g    3.729457    33Ag     3.729457
      19B2g    3.742398    19B3g    3.742398    31B1u    3.767312
      12Au     3.767312    20B3g    3.922572    20B2g    3.922572
      21B2g    3.969719    21B3g    3.969719    32B1u    4.005416
      22B3u    4.208441    22B2u    4.208441    34Ag     4.228038
      33B1u    4.373980    13Au     4.373980    22B2g    4.500644
      22B3g    4.500644    34B1u    4.514415    23B3u    4.687532
      23B2u    4.687532    23B2g    5.322703    23B3g    5.322703
      35Ag     5.356810    35B1u    6.048640    24B3u    6.844017
      24B2u    6.844017    14B1g    6.846214    36Ag     6.846214
      24B3g    6.876179    24B2g    6.876179    14Au     6.923944
      36B1u    6.923944    25B3u    6.928107    25B2u    6.928107
      37B1u    6.968183    37Ag     6.980446    25B2g    7.022332
      25B3g    7.022332    38Ag     7.105765    38B1u    7.404078
      15B1g    7.524358    39Ag     7.524358    26B3u    7.532719
      26B2u    7.532719    15Au     7.563139    39B1u    7.563139
      40Ag     7.640503    16B1g    7.640503    27B2u    7.659697
      27B3u    7.659697    41Ag     7.679164    17B1g    7.679164
      28B3u    7.686824    28B2u    7.686824    40B1u    7.700019
      16Au     7.700019    26B2g    7.717971    26B3g    7.717971
      27B3g    7.728420    27B2g    7.728420    41B1u    7.741283
      42Ag     7.754228    43Ag     7.810340    17Au     7.836000
      42B1u    7.836000    29B3u    7.872434    29B2u    7.872434
      44Ag     7.924883    18B1g    7.924883    30B2u    7.963933
      30B3u    7.963933    28B3g    7.970534    28B2g    7.970534
      45Ag     7.990590    19B1g    7.990590    43B1u    7.991949
      18Au     7.991949    29B2g    8.015531    29B3g    8.015531
      30B3g    8.110380    30B2g    8.110380    44B1u    8.215431
      45B1u    8.351102    19Au     8.351102    31B3u    8.378550
      31B2u    8.378550    31B2g    8.588851    31B3g    8.588851
      46Ag     8.653327    46B1u    8.753739    20B1g   20.773605
      47Ag    20.773605    47B1u   20.803300    20Au    20.803300
      32B3u   20.806939    32B2u   20.806939    32B2g   20.970622
      32B3g   20.970622    48B1u   21.044996    48Ag    21.059652
      33B3u   38.216218    33B2u   38.216218    33B2g   38.398293
      33B3g   38.398293    49Ag    38.489967    49B1u   39.382184
      50Ag    74.609490    50B1u   77.116801

    Beta Occupied:

       1Ag  -104.597356     1B1u -104.597355     2Ag   -10.320756
       2B1u  -10.320713     1B3g   -7.787517     1B2g   -7.787517
       1B2u   -7.787516     1B3u   -7.787516     3Ag    -7.776035
       3B1u   -7.776017     4Ag    -0.813307     4B1u   -0.754027
       2B2u   -0.245446     2B3u   -0.245446     2B3g   -0.202957
       2B2g   -0.202957     5Ag    -0.188423

    Beta Virtual:

       5B1u    0.160595     6B1u    0.212110     6Ag     0.217115
       3B2u    0.223330     3B3u    0.223330     3B3g    0.235072
       3B2g    0.235072     7Ag     0.274135     7B1u    0.342054
       8Ag     0.393777     1B1g    0.393777     4B3u    0.438747
       4B2u    0.438747     8B1u    0.452536     9B1u    0.455529
       1Au     0.455529     9Ag     0.472649     4B2g    0.492313
       4B3g    0.492313     5B2u    0.584808     5B3u    0.584808
       5B3g    0.642497     5B2g    0.642497    10Ag     0.665423
      10B1u    0.680928    11Ag     0.704998     6B3u    0.770485
       6B2u    0.770485     7B3u    0.772466     7B2u    0.772466
       2B1g    0.781944    12Ag     0.781944    13Ag     0.807364
       3B1g    0.833684    14Ag     0.833684     2Au     0.844128
      11B1u    0.844128     6B3g    0.857257     6B2g    0.857257
       7B3g    0.873534     7B2g    0.873534    12B1u    0.887511
      13B1u    0.945342     8B2u    0.987064     8B3u    0.987064
      14B1u    0.990704     3Au     0.990704    15Ag     1.120358
       8B3g    1.155329     8B2g    1.155329    15B1u    1.275947
       9B2u    1.481582     9B3u    1.481582    16Ag     1.497798
      17Ag     1.522163     4B1g    1.522163     5B1g    1.557119
      18Ag     1.557119     9B2g    1.574100     9B3g    1.574100
      10B2u    1.586700    10B3u    1.586700     4Au     1.594780
      16B1u    1.594780    11B3u    1.634796    11B2u    1.634796
      17B1u    1.639778    19Ag     1.651237     6B1g    1.651237
       5Au     1.660085    18B1u    1.660085    10B3g    1.701705
      10B2g    1.701705    20Ag     1.702881    12B2u    1.723918
      12B3u    1.723918    11B2g    1.741063    11B3g    1.741063
      13B3u    1.743583    13B2u    1.743583     7B1g    1.783583
      21Ag     1.783583    12B3g    1.794442    12B2g    1.794442
      19B1u    1.849230    22Ag     1.861703    20B1u    1.879955
       6Au     1.879955    21B1u    1.954422    23Ag     1.972720
      13B3g    1.997391    13B2g    1.997391    14B2u    2.007695
      14B3u    2.007695     7Au     2.037849    22B1u    2.037849
      14B2g    2.469414    14B3g    2.469414    23B1u    2.500087
      24Ag     2.561005    24B1u    2.975289    15B3u    3.278817
      15B2u    3.278817    25Ag     3.288241     8B1g    3.343864
      26Ag     3.343864    16B2u    3.464235    16B3u    3.464235
       9B1g    3.501972    27Ag     3.501972    15B3g    3.517703
      15B2g    3.517703    25B1u    3.522139    10B1g    3.522790
      28Ag     3.522790    17B2u    3.524992    17B3u    3.524992
      18B3u    3.532641    18B2u    3.532641     8Au     3.550209
      26B1u    3.550209    27B1u    3.556894     9Au     3.556894
      19B2u    3.559582    19B3u    3.559582    16B2g    3.588360
      16B3g    3.588360    17B3g    3.610639    17B2g    3.610639
      29Ag     3.619738    11B1g    3.619738    30Ag     3.631413
      31Ag     3.635879    12B1g    3.635879    10Au     3.658599
      28B1u    3.658599    20B2u    3.662211    20B3u    3.662211
      18B3g    3.671339    18B2g    3.671339    21B2u    3.680426
      21B3u    3.680426    29B1u    3.717455    11Au     3.717455
      13B1g    3.738007    32Ag     3.738007    30B1u    3.744093
      33Ag     3.744976    19B3g    3.754597    19B2g    3.754597
      12Au     3.776924    31B1u    3.776924    20B3g    3.926089
      20B2g    3.926089    21B3g    3.983039    21B2g    3.983039
      32B1u    4.020882    22B2u    4.219117    22B3u    4.219117
      34Ag     4.251132    33B1u    4.378913    13Au     4.378913
      22B3g    4.505834    22B2g    4.505834    34B1u    4.527394
      23B2u    4.693434    23B3u    4.693434    23B2g    5.330275
      23B3g    5.330275    35Ag     5.381490    35B1u    6.068570
      24B3u    6.845924    24B2u    6.845924    14B1g    6.856441
      36Ag     6.856441    24B3g    6.878329    24B2g    6.878329
      14Au     6.934376    36B1u    6.934376    25B2u    6.943090
      25B3u    6.943090    37B1u    6.983796    37Ag     6.996283
      25B3g    7.036996    25B2g    7.036996    38Ag     7.114371
      38B1u    7.415129    15B1g    7.527960    39Ag     7.527960
      26B2u    7.543982    26B3u    7.543982    15Au     7.564231
      39B1u    7.564231    40Ag     7.653023    16B1g    7.653023
      27B2u    7.668689    27B3u    7.668689    41Ag     7.680519
      17B1g    7.680519    28B2u    7.700094    28B3u    7.700094
      40B1u    7.701900    16Au     7.701900    26B3g    7.724004
      26B2g    7.724004    27B3g    7.737457    27B2g    7.737457
      41B1u    7.751701    42Ag     7.773235    43Ag     7.820870
      17Au     7.849819    42B1u    7.849819    29B3u    7.880880
      29B2u    7.880880    44Ag     7.930368    18B1g    7.930368
      30B2u    7.964606    30B3u    7.964606    28B3g    7.971209
      28B2g    7.971209    43B1u    7.996924    18Au     7.996924
      19B1g    8.000739    45Ag     8.000739    29B3g    8.032982
      29B2g    8.032982    30B3g    8.118377    30B2g    8.118377
      44B1u    8.228611    45B1u    8.361454    19Au     8.361454
      31B2u    8.390556    31B3u    8.390556    31B2g    8.600578
      31B3g    8.600578    46Ag     8.665969    46B1u    8.772070
      20B1g   20.776021    47Ag    20.776021    20Au    20.805698
      47B1u   20.805698    32B2u   20.816811    32B3u   20.816811
      32B3g   20.980382    32B2g   20.980382    48B1u   21.057283
      48Ag    21.071929    33B3u   38.219695    33B2u   38.219695
      33B2g   38.401796    33B3g   38.401796    49Ag    38.511830
      49B1u   39.402947    50Ag    74.614445    50B1u   77.121670

    Final Occupation by Irrep:
             Ag   B1g   B2g   B3g    Au   B1u   B2u   B3u
    DOCC [     5,    0,    2,    2,    0,    4,    2,    2 ]
    SOCC [     0,    0,    0,    0,    0,    1,    0,    0 ]

  Energy converged.

  @UHF Final Energy:  -919.08739552878524

   => Energetics <=

    Nuclear Repulsion Energy =             59.4784152056529294
    One-Electron Energy =               -1398.0947387805695143
    Two-Electron Energy =                 419.5289280461313979
    Total Energy =                       -919.0873955287852368

  UHF NO Occupations:
  HONO-2 :    4B1u 1.9984829
  HONO-1 :    5 Ag 1.9925466
  HONO-0 :    5B1u 1.0000000
  LUNO+0 :    6 Ag 0.0074534
  LUNO+1 :    6B1u 0.0015171
  LUNO+2 :    7 Ag 0.0009907
  LUNO+3 :    3B3g 0.0003296

Properties will be evaluated at   0.000000,   0.000000,   0.000000 Bohr

Properties computed using the SCF density matrix

  Nuclear Dipole Moment: (a.u.)
     X:     0.0000      Y:     0.0000      Z:    -0.0000

  Electronic Dipole Moment: (a.u.)
     X:     0.0000      Y:     0.0000      Z:     0.0000

  Dipole Moment: (a.u.)
     X:     0.0000      Y:     0.0000      Z:    -0.0000     Total:     0.0000

  Dipole Moment: (Debye)
     X:     0.0000      Y:     0.0000      Z:    -0.0000     Total:     0.0000

*** tstop() called on cqc05 at Fri Aug 21 02:16:45 2020
Module time:
	user time   =     112.44 seconds =       1.87 minutes
	system time =       4.03 seconds =       0.07 minutes
	total time  =        115 seconds =       1.92 minutes
Total time:
	user time   =     112.44 seconds =       1.87 minutes
	system time =       4.03 seconds =       0.07 minutes
	total time  =        115 seconds =       1.92 minutes

*** tstart() called on cqc05
*** at Fri Aug 21 02:16:45 2020

	Wfn Parameters:
	--------------------
	Wavefunction         = CCSD
	Number of irreps     = 8
	Number of MOs        = 272
	Number of active MOs = 262
	AO-Basis             = NONE
	Semicanonical        = false
	Reference            = UHF
	Print Level          = 1

	IRREP	# MOs	# FZDC	# DOCC	# SOCC	# VIRT	# FZVR
	-----	-----	------	------	------	------	------
	 Ag	   50	    3	    2	    0	    45	    0
	 B1g	   20	    0	    0	    0	    20	    0
	 B2g	   33	    1	    1	    0	    31	    0
	 B3g	   33	    1	    1	    0	    31	    0
	 Au	   20	    0	    0	    0	    20	    0
	 B1u	   50	    3	    1	    1	    45	    0
	 B2u	   33	    1	    1	    0	    31	    0
	 B3u	   33	    1	    1	    0	    31	    0
	Transforming integrals...
	IWL integrals will be deleted.
	(OO|OO)...
	Presorting SO-basis two-electron integrals.
	Sorting File: SO Ints (nn|nn) nbuckets = 1
	Transforming the one-electron integrals and constructing Fock matrices
	Starting AA/AB first half-transformation.
	Sorting AA/AB half-transformed integrals.
	Starting BB first half-transformation.
	Sorting BB half-transformed integrals.
	First half integral transformation complete.
	Starting AA second half-transformation.
	Starting AB second half-transformation.
	Starting BB second half-transformation.
	Two-electron integral transformation complete.
	(OO|OV)...
	Starting AA second half-transformation.
	Starting AB second half-transformation.
	Starting BB second half-transformation.
	Two-electron integral transformation complete.
	(OO|VV)...
	Starting AA second half-transformation.
	Starting AB second half-transformation.
	Starting BB second half-transformation.
	Two-electron integral transformation complete.
	(OV|OO)...
	Starting AA/AB first half-transformation.
	Sorting AA/AB half-transformed integrals.
	Starting BB first half-transformation.
	Sorting BB half-transformed integrals.
	First half integral transformation complete.
	Starting AA second half-transformation.
	Starting AB second half-transformation.
	Starting BB second half-transformation.
	Two-electron integral transformation complete.
	(OV|OV)...
	Starting AA second half-transformation.
	Starting AB second half-transformation.
	Starting BB second half-transformation.
	Two-electron integral transformation complete.
	(OV|VV)...
	Starting AA second half-transformation.
	Starting AB second half-transformation.
	Starting BB second half-transformation.
	Two-electron integral transformation complete.
	(VV|OO)...
	Starting AA/AB first half-transformation.
	Sorting AA/AB half-transformed integrals.
	Starting BB first half-transformation.
	Sorting BB half-transformed integrals.
	First half integral transformation complete.
	Starting AA second half-transformation.
	Starting AB second half-transformation.
	Starting BB second half-transformation.
	Two-electron integral transformation complete.
	(VV|OV)...
	Starting AA second half-transformation.
	Starting AB second half-transformation.
	Starting BB second half-transformation.
	Two-electron integral transformation complete.
	(VV|VV)...
	Starting AA second half-transformation.
	Starting AB second half-transformation.
	Starting BB second half-transformation.
	Two-electron integral transformation complete.
	Frozen core energy     =   -938.88895377022891

	Size of irrep 0 of <AB|CD> integrals:     17.808 (MW) /    142.467 (MB)
	Size of irrep 1 of <AB|CD> integrals:     13.853 (MW) /    110.826 (MB)
	Size of irrep 2 of <AB|CD> integrals:     16.241 (MW) /    129.927 (MB)
	Size of irrep 3 of <AB|CD> integrals:     16.241 (MW) /    129.927 (MB)
	Size of irrep 4 of <AB|CD> integrals:     13.853 (MW) /    110.826 (MB)
	Size of irrep 5 of <AB|CD> integrals:     18.896 (MW) /    151.171 (MB)
	Size of irrep 6 of <AB|CD> integrals:     16.241 (MW) /    129.927 (MB)
	Size of irrep 7 of <AB|CD> integrals:     16.241 (MW) /    129.927 (MB)
	Total:                                   129.375 (MW) /   1035.000 (MB)

	Size of irrep 0 of <ab|cd> integrals:     18.190 (MW) /    145.522 (MB)
	Size of irrep 1 of <ab|cd> integrals:     14.003 (MW) /    112.021 (MB)
	Size of irrep 2 of <ab|cd> integrals:     16.492 (MW) /    131.934 (MB)
	Size of irrep 3 of <ab|cd> integrals:     16.492 (MW) /    131.934 (MB)
	Size of irrep 4 of <ab|cd> integrals:     14.003 (MW) /    112.021 (MB)
	Size of irrep 5 of <ab|cd> integrals:     19.290 (MW) /    154.317 (MB)
	Size of irrep 6 of <ab|cd> integrals:     16.492 (MW) /    131.934 (MB)
	Size of irrep 7 of <ab|cd> integrals:     16.492 (MW) /    131.934 (MB)
	Total:                                   131.452 (MW) /   1051.615 (MB)

	Size of irrep 0 of <Ab|Cd> integrals:     76.370 (MW) /    610.961 (MB)
	Size of irrep 1 of <Ab|Cd> integrals:     55.711 (MW) /    445.690 (MB)
	Size of irrep 2 of <Ab|Cd> integrals:     65.464 (MW) /    523.714 (MB)
	Size of irrep 3 of <Ab|Cd> integrals:     65.464 (MW) /    523.714 (MB)
	Size of irrep 4 of <Ab|Cd> integrals:     55.711 (MW) /    445.690 (MB)
	Size of irrep 5 of <Ab|Cd> integrals:     76.370 (MW) /    610.961 (MB)
	Size of irrep 6 of <Ab|Cd> integrals:     65.464 (MW) /    523.714 (MB)
	Size of irrep 7 of <Ab|Cd> integrals:     65.464 (MW) /    523.714 (MB)
	Total:                                   526.020 (MW) /   4208.160 (MB)

	Size of irrep 0 of <IA|BC> integrals:      2.643 (MW) /     21.144 (MB)
	Size of irrep 1 of <IA|BC> integrals:      1.519 (MW) /     12.149 (MB)
	Size of irrep 2 of <IA|BC> integrals:      2.047 (MW) /     16.378 (MB)
	Size of irrep 3 of <IA|BC> integrals:      2.047 (MW) /     16.378 (MB)
	Size of irrep 4 of <IA|BC> integrals:      1.519 (MW) /     12.149 (MB)
	Size of irrep 5 of <IA|BC> integrals:      2.643 (MW) /     21.144 (MB)
	Size of irrep 6 of <IA|BC> integrals:      2.047 (MW) /     16.378 (MB)
	Size of irrep 7 of <IA|BC> integrals:      2.047 (MW) /     16.378 (MB)
	Total:                                    16.512 (MW) /    132.097 (MB)

	Size of irrep 0 of <ia|bc> integrals:      2.284 (MW) /     18.273 (MB)
	Size of irrep 1 of <ia|bc> integrals:      1.377 (MW) /     11.016 (MB)
	Size of irrep 2 of <ia|bc> integrals:      1.819 (MW) /     14.555 (MB)
	Size of irrep 3 of <ia|bc> integrals:      1.819 (MW) /     14.555 (MB)
	Size of irrep 4 of <ia|bc> integrals:      1.377 (MW) /     11.016 (MB)
	Size of irrep 5 of <ia|bc> integrals:      2.293 (MW) /     18.341 (MB)
	Size of irrep 6 of <ia|bc> integrals:      1.819 (MW) /     14.555 (MB)
	Size of irrep 7 of <ia|bc> integrals:      1.819 (MW) /     14.555 (MB)
	Total:                                    14.608 (MW) /    116.865 (MB)

	Size of irrep 0 of <Ia|Bc> integrals:      2.674 (MW) /     21.393 (MB)
	Size of irrep 1 of <Ia|Bc> integrals:      1.523 (MW) /     12.181 (MB)
	Size of irrep 2 of <Ia|Bc> integrals:      2.063 (MW) /     16.506 (MB)
	Size of irrep 3 of <Ia|Bc> integrals:      2.063 (MW) /     16.506 (MB)
	Size of irrep 4 of <Ia|Bc> integrals:      1.523 (MW) /     12.181 (MB)
	Size of irrep 5 of <Ia|Bc> integrals:      2.674 (MW) /     21.393 (MB)

      * MP2 total energy                      = -919.534701332623740
      * CCSD total energy                     = -919.560199220951404
*** Psi4 exiting successfully. Buy a developer a beer!
