                               Psi4 1.2a1.dev938

  ==> Input File <==

--------------------------------------------------------------------------
# Any line starting with the # character is a comment line
memory 250000 mb
molecule molecule{
-1 2
Cl         0.0000000000        0.0000000000        1.2856110301
Cl         0.0000000000        0.0000000000       -1.2856110301
}

set {
  reference uhf
  basis aug-cc-pv(d+d)z
  scf_type OUT_OF_CORE
  freeze_core true
}

energy('ccsd')
--------------------------------------------------------------------------

    Molecular point group: d2h

    Geometry (in Angstrom), charge = -1, multiplicity = 2:

       Center              X                  Y                   Z               Mass
    ------------   -----------------  -----------------  -----------------  -----------------
          CL          0.000000000000     0.000000000000     1.285611030100    34.968852682000
          CL          0.000000000000     0.000000000000    -1.285611030100    34.968852682000

  Charge       = -1
  Multiplicity = 2
  Basis Set: AUG-CC-PV(D+D)Z
    Blend: AUG-CC-PV(D+D)Z

    Orbital Energies (a.u.)
    -----------------------

    Alpha Occupied:

       1B1u -104.605857     1Ag  -104.605856     2B1u  -10.330240
       2Ag   -10.330212     1B2g   -7.807412     1B3u   -7.807403
       3Ag    -7.792942     3B1u   -7.792936     1B3g   -7.792611
       1B2u   -7.792602     4Ag    -0.876971     4B1u   -0.832337
       5Ag    -0.308314     2B3u   -0.301633     2B2g   -0.265283
       2B2u   -0.260741     2B3g   -0.221336     5B1u   -0.156811

    Alpha Virtual:

       6B1u    0.253008     3B3u    0.290635     6Ag     0.294126
       3B2u    0.297479     3B2g    0.309946     3B3g    0.315753
       7Ag     0.352133     7B1u    0.458475     4B3u    0.609114
       4B2u    0.625636     8Ag     0.629612     1B1g    0.630347
       8B1u    0.696157     1Au     0.696403     9Ag     0.725174
       4B2g    0.808272     4B3g    0.828431     9B1u    0.846067
       5B3u    1.073688     5B2u    1.098967     5B2g    1.157961
      10Ag     1.170328     5B3g    1.183924    10B1u    1.292803
      11Ag     1.322260     2B1g    1.474494    12Ag     1.474760
      11B1u    1.513868     2Au     1.519484     6B3u    1.528015
       6B2u    1.551968    12B1u    1.560964     6B2g    1.578002
       6B3g    1.600080    13Ag     1.716069    13B1u    1.822912
      14Ag     6.179198     3B1g    6.179973    14B1u    6.198250
       3Au     6.200402     7B3u    6.205519     7B2u    6.221879
       7B2g    6.225314     7B3g    6.241609    15B1u    6.241629
      15Ag     6.293578

    Beta Occupied:

       1B1u -104.598952     1Ag  -104.598952     2B1u  -10.323129
       2Ag   -10.323121     3Ag    -7.788914     3B1u   -7.788906
       1B3g   -7.788513     1B2u   -7.788504     1B2g   -7.778597
       1B3u   -7.778591     4Ag    -0.814359     4B1u   -0.756154
       5Ag    -0.294466     2B2u   -0.247876     2B3g   -0.205776
       5B1u   -0.140239     2B3u   -0.121463

    Beta Virtual:

       2B2g    0.116136     6B1u    0.253906     6Ag     0.295051
       3B2u    0.297955     3B3u    0.305235     3B3g    0.316222
       3B2g    0.325546     7Ag     0.348145     7B1u    0.461908
       4B2u    0.625784     4B3u    0.632727     8Ag     0.649873
       1B1g    0.650071     1Au     0.726695     8B1u    0.726953
       9Ag     0.739388     4B3g    0.831005     4B2g    0.843830
       9B1u    0.856289     5B2u    1.104779     5B3u    1.128536
      10Ag     1.176807     5B3g    1.189846     5B2g    1.209718
      10B1u    1.302897    11Ag     1.336298     2B1g    1.509334
      12Ag     1.509650    11B1u    1.551728     2Au     1.551816
       6B2u    1.556381     6B3u    1.560201    12B1u    1.573262
       6B3g    1.603743     6B2g    1.605805    13Ag     1.725331
      13B1u    1.829929    14Ag     6.186299     3B1g    6.186667
      14B1u    6.206017     3Au     6.207104     7B3u    6.212012
       7B2u    6.223109     7B2g    6.231939     7B3g    6.242816
      15B1u    6.243619    15Ag     6.296134

    Final Occupation by Irrep:
             Ag   B1g   B2g   B3g    Au   B1u   B2u   B3u
    DOCC [     5,    0,    1,    2,    0,    5,    2,    2 ]
    SOCC [     0,    0,    1,    0,    0,    0,    0,    0 ]

  Energy converged.

  @UHF Final Energy:  -918.98709805218880

   => Energetics <=

    Nuclear Repulsion Energy =             59.4784152056529294
    One-Electron Energy =               -1397.9130165734422917
    Two-Electron Energy =                 419.4475033156005566
    PCM Polarization Energy =               0.0000000000000000
    Total Energy =                       -918.9870980521887986

    Alert: EFP and PCM quantities not currently incorporated into SCF psivars.
  UHF NO Occupations:
  HONO-2 :    5B1u 1.9987316
  HONO-1 :    2B3u 1.9828867
  HONO-0 :    2B2g 1.0000000
  LUNO+0 :    3B3u 0.0171133
  LUNO+1 :    6B1u 0.0012684
  LUNO+2 :    6 Ag 0.0012100
  LUNO+3 :    7B1u 0.0001547

Properties will be evaluated at   0.000000,   0.000000,   0.000000 Bohr

Properties computed using the SCF density matrix

  Nuclear Dipole Moment: (a.u.)
     X:     0.0000      Y:     0.0000      Z:    -0.0000

  Electronic Dipole Moment: (a.u.)
     X:     0.0000      Y:     0.0000      Z:     0.0000

  Dipole Moment: (a.u.)
     X:     0.0000      Y:     0.0000      Z:    -0.0000     Total:     0.0000

  Dipole Moment: (Debye)
     X:     0.0000      Y:     0.0000      Z:    -0.0000     Total:     0.0000

*** tstop() called on cqc05 at Thu Aug 20 19:53:56 2020
Module time:
	user time   =       1.29 seconds =       0.02 minutes
	system time =       0.03 seconds =       0.00 minutes
	total time  =          0 seconds =       0.00 minutes
Total time:
	user time   =       1.29 seconds =       0.02 minutes
	system time =       0.03 seconds =       0.00 minutes
	total time  =          0 seconds =       0.00 minutes

*** tstart() called on cqc05
*** at Thu Aug 20 19:53:56 2020

	Wfn Parameters:
	--------------------
	Wavefunction         = CCSD
	Number of irreps     = 8
	Number of MOs        = 64
	Number of active MOs = 54
	AO-Basis             = NONE
	Semicanonical        = false
	Reference            = UHF
	Print Level          = 1

	IRREP	# MOs	# FZDC	# DOCC	# SOCC	# VIRT	# FZVR
	-----	-----	------	------	------	------	------
	 Ag	   15	    3	    2	    0	    10	    0
	 B1g	   3	    0	    0	    0	    3	    0
	 B2g	   7	    1	    0	    1	    5	    0
	 B3g	   7	    1	    1	    0	    5	    0
	 Au	   3	    0	    0	    0	    3	    0
	 B1u	   15	    3	    2	    0	    10	    0
	 B2u	   7	    1	    1	    0	    5	    0
	 B3u	   7	    1	    1	    0	    5	    0
	Transforming integrals...
	IWL integrals will be deleted.
	(OO|OO)...
	Presorting SO-basis two-electron integrals.
	Sorting File: SO Ints (nn|nn) nbuckets = 1
	Transforming the one-electron integrals and constructing Fock matrices
	Starting AA/AB first half-transformation.
	Sorting AA/AB half-transformed integrals.
	Starting BB first half-transformation.
	Sorting BB half-transformed integrals.
	First half integral transformation complete.
	Starting AA second half-transformation.
	Starting AB second half-transformation.
	Starting BB second half-transformation.
	Two-electron integral transformation complete.
	(OO|OV)...
	Starting AA second half-transformation.
	Starting AB second half-transformation.
	Starting BB second half-transformation.
	Two-electron integral transformation complete.
	(OO|VV)...
	Starting AA second half-transformation.
	Starting AB second half-transformation.
	Starting BB second half-transformation.
	Two-electron integral transformation complete.
	(OV|OO)...
	Starting AA/AB first half-transformation.
	Sorting AA/AB half-transformed integrals.
	Starting BB first half-transformation.
	Sorting BB half-transformed integrals.
	First half integral transformation complete.
	Starting AA second half-transformation.
	Starting AB second half-transformation.
	Starting BB second half-transformation.
	Two-electron integral transformation complete.
	(OV|OV)...
	Starting AA second half-transformation.
	Starting AB second half-transformation.
	Starting BB second half-transformation.
	Two-electron integral transformation complete.
	(OV|VV)...
	Starting AA second half-transformation.
	Starting AB second half-transformation.
	Starting BB second half-transformation.
	Two-electron integral transformation complete.
	(VV|OO)...
	Starting AA/AB first half-transformation.
	Sorting AA/AB half-transformed integrals.
	Starting BB first half-transformation.
	Sorting BB half-transformed integrals.
	First half integral transformation complete.
	Starting AA second half-transformation.
	Starting AB second half-transformation.
	Starting BB second half-transformation.
	Two-electron integral transformation complete.
	(VV|OV)...
	Starting AA second half-transformation.
	Starting AB second half-transformation.
	Starting BB second half-transformation.
	Two-electron integral transformation complete.
	(VV|VV)...
	Starting AA second half-transformation.
	Starting AB second half-transformation.
	Starting BB second half-transformation.
	Two-electron integral transformation complete.
	Frozen core energy     =   -938.86676937324455

	Size of irrep 0 of <AB|CD> integrals:      0.018 (MW) /      0.148 (MB)
	Size of irrep 1 of <AB|CD> integrals:      0.012 (MW) /      0.097 (MB)
	Size of irrep 2 of <AB|CD> integrals:      0.017 (MW) /      0.135 (MB)
	Size of irrep 3 of <AB|CD> integrals:      0.017 (MW) /      0.135 (MB)
	Size of irrep 4 of <AB|CD> integrals:      0.012 (MW) /      0.097 (MB)
	Size of irrep 5 of <AB|CD> integrals:      0.025 (MW) /      0.202 (MB)
	Size of irrep 6 of <AB|CD> integrals:      0.017 (MW) /      0.135 (MB)
	Size of irrep 7 of <AB|CD> integrals:      0.017 (MW) /      0.135 (MB)
	Total:                                     0.136 (MW) /      1.085 (MB)

	Size of irrep 0 of <ab|cd> integrals:      0.020 (MW) /      0.159 (MB)
	Size of irrep 1 of <ab|cd> integrals:      0.013 (MW) /      0.106 (MB)
	Size of irrep 2 of <ab|cd> integrals:      0.020 (MW) /      0.157 (MB)
	Size of irrep 3 of <ab|cd> integrals:      0.018 (MW) /      0.142 (MB)
	Size of irrep 4 of <ab|cd> integrals:      0.013 (MW) /      0.106 (MB)
	Size of irrep 5 of <ab|cd> integrals:      0.027 (MW) /      0.215 (MB)
	Size of irrep 6 of <ab|cd> integrals:      0.018 (MW) /      0.142 (MB)
	Size of irrep 7 of <ab|cd> integrals:      0.020 (MW) /      0.157 (MB)
	Total:                                     0.148 (MW) /      1.182 (MB)

	Size of irrep 0 of <Ab|Cd> integrals:      0.104 (MW) /      0.835 (MB)
	Size of irrep 1 of <Ab|Cd> integrals:      0.051 (MW) /      0.405 (MB)
	Size of irrep 2 of <Ab|Cd> integrals:      0.073 (MW) /      0.583 (MB)
	Size of irrep 3 of <Ab|Cd> integrals:      0.069 (MW) /      0.553 (MB)
	Size of irrep 4 of <Ab|Cd> integrals:      0.051 (MW) /      0.405 (MB)
	Size of irrep 5 of <Ab|Cd> integrals:      0.104 (MW) /      0.835 (MB)
	Size of irrep 6 of <Ab|Cd> integrals:      0.069 (MW) /      0.553 (MB)
	Size of irrep 7 of <Ab|Cd> integrals:      0.073 (MW) /      0.583 (MB)
	Total:                                     0.594 (MW) /      4.752 (MB)

	Size of irrep 0 of <IA|BC> integrals:      0.019 (MW) /      0.153 (MB)
	Size of irrep 1 of <IA|BC> integrals:      0.007 (MW) /      0.056 (MB)
	Size of irrep 2 of <IA|BC> integrals:      0.012 (MW) /      0.096 (MB)
	Size of irrep 3 of <IA|BC> integrals:      0.012 (MW) /      0.096 (MB)
	Size of irrep 4 of <IA|BC> integrals:      0.007 (MW) /      0.056 (MB)
	Size of irrep 5 of <IA|BC> integrals:      0.019 (MW) /      0.153 (MB)
	Size of irrep 6 of <IA|BC> integrals:      0.012 (MW) /      0.096 (MB)
	Size of irrep 7 of <IA|BC> integrals:      0.012 (MW) /      0.096 (MB)
	Total:                                     0.100 (MW) /      0.801 (MB)

	Size of irrep 0 of <ia|bc> integrals:      0.018 (MW) /      0.145 (MB)
	Size of irrep 1 of <ia|bc> integrals:      0.006 (MW) /      0.052 (MB)
	Size of irrep 2 of <ia|bc> integrals:      0.011 (MW) /      0.085 (MB)
	Size of irrep 3 of <ia|bc> integrals:      0.011 (MW) /      0.092 (MB)
	Size of irrep 4 of <ia|bc> integrals:      0.006 (MW) /      0.052 (MB)
	Size of irrep 5 of <ia|bc> integrals:      0.018 (MW) /      0.147 (MB)
	Size of irrep 6 of <ia|bc> integrals:      0.011 (MW) /      0.092 (MB)
	Size of irrep 7 of <ia|bc> integrals:      0.011 (MW) /      0.085 (MB)
	Total:                                     0.093 (MW) /      0.748 (MB)

	Size of irrep 0 of <Ia|Bc> integrals:      0.020 (MW) /      0.158 (MB)
	Size of irrep 1 of <Ia|Bc> integrals:      0.007 (MW) /      0.059 (MB)
	Size of irrep 2 of <Ia|Bc> integrals:      0.013 (MW) /      0.104 (MB)
	Size of irrep 3 of <Ia|Bc> integrals:      0.012 (MW) /      0.097 (MB)
	Size of irrep 4 of <Ia|Bc> integrals:      0.007 (MW) /      0.059 (MB)
	Size of irrep 5 of <Ia|Bc> integrals:      0.020 (MW) /      0.158 (MB)
	Size of irrep 6 of <Ia|Bc> integrals:      0.012 (MW) /      0.097 (MB)
	Size of irrep 7 of <Ia|Bc> integrals:      0.013 (MW) /      0.104 (MB)
	Total:                                     0.104 (MW) /      0.835 (MB)

	Size of irrep 0 of <iA|bC> integrals:      0.018 (MW) /      0.142 (MB)
	Size of irrep 1 of <iA|bC> integrals:      0.006 (MW) /      0.049 (MB)
	Size of irrep 2 of <iA|bC> integrals:      0.010 (MW) /      0.078 (MB)
	Size of irrep 3 of <iA|bC> integrals:      0.011 (MW) /      0.090 (MB)
	Size of irrep 4 of <iA|bC> integrals:      0.006 (MW) /      0.049 (MB)
	Size of irrep 5 of <iA|bC> integrals:      0.018 (MW) /      0.142 (MB)
	Size of irrep 6 of <iA|bC> integrals:      0.011 (MW) /      0.090 (MB)
	Size of irrep 7 of <iA|bC> integrals:      0.010 (MW) /      0.078 (MB)
	Total:                                     0.090 (MW) /      0.718 (MB)

	Size of irrep 0 of tIjAb amplitudes:       0.004 (MW) /      0.028 (MB)
	Size of irrep 1 of tIjAb amplitudes:       0.001 (MW) /      0.005 (MB)
	Size of irrep 2 of tIjAb amplitudes:       0.002 (MW) /      0.013 (MB)
	Size of irrep 3 of tIjAb amplitudes:       0.002 (MW) /      0.017 (MB)
	Size of irrep 4 of tIjAb amplitudes:       0.001 (MW) /      0.005 (MB)
	Size of irrep 5 of tIjAb amplitudes:       0.004 (MW) /      0.028 (MB)
	Size of irrep 6 of tIjAb amplitudes:       0.002 (MW) /      0.017 (MB)
	Size of irrep 7 of tIjAb amplitudes:       0.002 (MW) /      0.013 (MB)
	Total:                                     0.016 (MW) /      0.127 (MB)

	Nuclear Rep. energy          =     59.47841520565293
	SCF energy                   =   -918.98709805218880
	One-electron energy          =    -73.39372814672119
	Two-electron (AA) energy     =      8.23885145283461
	Two-electron (BB) energy     =      6.05836494958531
	Two-electron (AB) energy     =     19.49776785970317
	Two-electron energy          =     33.79498426212309
	Reference energy             =   -918.98709805218971

*** tstop() called on cqc05 at Thu Aug 20 19:53:57 2020
Module time:
	user time   =       0.19 seconds =       0.00 minutes
	system time =       0.13 seconds =       0.00 minutes
	total time  =          1 seconds =       0.02 minutes
Total time:
	user time   =       1.48 seconds =       0.02 minutes
	system time =       0.16 seconds =       0.00 minutes
	total time  =          1 seconds =       0.02 minutes

*** tstart() called on cqc05
*** at Thu Aug 20 19:53:57 2020

            **************************
            *                        *
            *        CCENERGY        *
            *                        *
            **************************

    Nuclear Rep. energy (wfn)     =   59.478415205652929
    SCF energy          (wfn)     = -918.987098052188799
    Reference energy    (file100) = -918.987098052189708

    Input parameters:
    -----------------
    Wave function   =     CCSD
    Reference wfn   =     UHF
    Brueckner       =     No
    Memory (Mbytes) =     250000.0
    Maxiter         =     50
    R_Convergence   =     1.0e-07
    E_Convergence   =     1.0e-06
    Restart         =     Yes
    DIIS            =     Yes
    AO Basis        =     NONE
    ABCD            =     NEW
    Cache Level     =     2
    Cache Type      =     LRU
    Print Level     =     1
    Num. of threads =     4
    # Amps to Print =     10
    Print MP2 Amps? =     No
    Analyze T2 Amps =     No
    Print Pair Ener =     No
    Local CC        =     No
    SCS-MP2         =     False
    SCSN-MP2        =     False
    SCS-CCSD        =     False

MP2 correlation energy -0.3144368759950686
                Solving CC Amplitude Equations
                ------------------------------
  Iter             Energy              RMS        T1Diag      D1Diag    New D1Diag    D2Diag
  ----     ---------------------    ---------   ----------  ----------  ----------   --------
     0        -0.314436875995069    0.000e+00    0.000000    0.000000    0.000000    0.000000
     1        -0.333954964072644    7.148e-02    0.014066    0.000000    0.000000    0.000000
     2        -0.341451073960867    2.482e-02    0.018223    0.000000    0.000000    0.000000
     3        -0.343090161194419    1.285e-02    0.021846    0.000000    0.000000    0.000000
     4        -0.342962719078245    3.943e-03    0.023195    0.000000    0.000000    0.000000
     5        -0.342870019230597    1.413e-03    0.023485    0.000000    0.000000    0.000000
     6        -0.342864387772152    4.203e-04    0.023558    0.000000    0.000000    0.000000
     7        -0.342868389335524    1.455e-04    0.023564    0.000000    0.000000    0.000000
     8        -0.342870247979068    5.696e-05    0.023563    0.000000    0.000000    0.000000
     9        -0.342870344875180    1.703e-05    0.023562    0.000000    0.000000    0.000000
    10        -0.342870262552491    5.975e-06    0.023562    0.000000    0.000000    0.000000
    11        -0.342870289738814    2.463e-06    0.023562    0.000000    0.000000    0.000000
    12        -0.342870293392346    9.362e-07    0.023562    0.000000    0.000000    0.000000
    13        -0.342870304845098    2.947e-07    0.023562    0.000000    0.000000    0.000000
    14        -0.342870310059429    1.047e-07    0.023562    0.000000    0.000000    0.000000
    15        -0.342870310879511    3.767e-08    0.023562    0.000000    0.000000    0.000000
    15        -0.342870310879511    3.767e-08    0.023562    0.000000    0.000000    0.000000

    Iterations converged.

    CCSD corr. energy   =   -0.342870310879511
    PPL corr. energy    =    0.077102991791326
    OS PPL corr. energy =    0.059955556068833
    SS PPL corr. energy =    0.017147435722492
    Largest TIA Amplitudes:
              7  41         0.0320687922
              5  26         0.0277602408
              6  36        -0.0212203365
              2  13         0.0207863362
              3  18        -0.0135014932
              7  42        -0.0109373714
              1   1         0.0098891878
              5  27        -0.0089157789
              1   3        -0.0076291019
              7  43        -0.0064732036

    Largest Tia Amplitudes:
              6  42         0.0426520513
              4  27         0.0271702780
              6  43        -0.0246136192
              6  44        -0.0233024649
              5  37        -0.0183905854
              2  19        -0.0120089116
              3  29        -0.0107556193
              1   3        -0.0090608797
              4  28        -0.0087388754
              0   2         0.0072734411

    Largest TIJAB Amplitudes:

      * MP2 total energy                      = -919.301534928184765
      * CCSD total energy                     = -919.329968363069270
*** Psi4 exiting successfully. Buy a developer a beer!
