                               Psi4 1.2a1.dev939

  ==> Input File <==

--------------------------------------------------------------------------
# Any line starting with the # character is a comment line
memory 250000 mb
molecule molecule{
-1 2
Cl         0.0000000000        0.0000000000        1.2856110301
Cl         0.0000000000        0.0000000000       -1.2856110301
}

set {
  reference uhf
  basis aug-cc-pv(6+d)z
  scf_type OUT_OF_CORE
  freeze_core true
}

energy('ccsd')
--------------------------------------------------------------------------

    Molecular point group: d2h

    Geometry (in Angstrom), charge = -1, multiplicity = 2:

       Center              X                  Y                   Z               Mass
    ------------   -----------------  -----------------  -----------------  -----------------
          CL          0.000000000000     0.000000000000     1.285611030100    34.968852682000
          CL          0.000000000000     0.000000000000    -1.285611030100    34.968852682000

  Charge       = -1
  Multiplicity = 2
  Basis Set: AUG-CC-PV(6+D)Z
    Blend: AUG-CC-PV(6+D)Z

    Orbital Energies (a.u.)
    -----------------------

    Alpha Occupied:

       1B1u -104.605449     1Ag  -104.605449     2B1u  -10.328835
       2Ag   -10.328828     3Ag    -7.806397     3B1u   -7.806391
       1B3g   -7.792419     1B2g   -7.792419     1B2u   -7.792411
       1B3u   -7.792411     4Ag    -0.876211     4B1u   -0.825687
       5Ag    -0.342143     2B2u   -0.259674     2B3u   -0.259674
       2B3g   -0.218213     2B2g   -0.218213     5B1u   -0.195627

    Alpha Virtual:

       6B1u    0.160898     6Ag     0.199961     3B2u    0.203265
       3B3u    0.203265     3B2g    0.215080     3B3g    0.215080
       7Ag     0.260101     7B1u    0.305533     1B1g    0.376427
       8Ag     0.376427     8B1u    0.413878     4B3u    0.415361
       4B2u    0.415361     9Ag     0.430392     1Au     0.432075
       9B1u    0.432075     4B2g    0.449293     4B3g    0.449293
       5B2u    0.494259     5B3u    0.494259     5B3g    0.534003
       5B2g    0.534003    10Ag     0.542550    10B1u    0.565394
      11Ag     0.645930     6B2u    0.711108     6B3u    0.711108
       7B3u    0.711381     7B2u    0.711381     2B1g    0.730201
      12Ag     0.730201    13Ag     0.734211    11B1u    0.781813
       3B1g    0.782987    14Ag     0.782987     6B3g    0.793098
       6B2g    0.793098     2Au     0.795958    12B1u    0.795958
       7B3g    0.797101     7B2g    0.797101    13B1u    0.875950
       8B2u    0.908776     8B3u    0.908776     3Au     0.917299
      14B1u    0.917299    15Ag     1.009302     8B2g    1.048882
       8B3g    1.048882    15B1u    1.089168    16Ag     1.158765
       4B1g    1.193354    17Ag     1.193354     9B2u    1.196850
       9B3u    1.196850    10B2u    1.229691    10B3u    1.229691
       9B3g    1.246580     9B2g    1.246580     4Au     1.278370
      16B1u    1.278370     5B1g    1.331119    18Ag     1.331119
      19Ag     1.386822    11B3u    1.390843    11B2u    1.390843
      10B3g    1.395128    10B2g    1.395128    17B1u    1.415505
      11B2g    1.425534    11B3g    1.425534     5Au     1.447421
      18B1u    1.447421     6B1g    1.520576    20Ag     1.520576
      19B1u    1.551946    12B2u    1.598903    12B3u    1.598903
      13B3u    1.613588    13B2u    1.613588     7B1g    1.617925
      21Ag     1.617925    12B3g    1.664886    12B2g    1.664886
      22Ag     1.697852     6Au     1.714509    20B1u    1.714509
      14B2u    1.738529    14B3u    1.738529    21B1u    1.751608
       7Au     1.784069    22B1u    1.784069    23Ag     1.790394
      13B2g    1.837582    13B3g    1.837582    23B1u    1.880645
      24Ag     2.190025    14B2g    2.203706    14B3g    2.203706
      15B3u    2.509393    15B2u    2.509393     8B1g    2.534243
      25Ag     2.534243     9B1g    2.558143    26Ag     2.558143
      16B3u    2.611303    16B2u    2.611303    17B3u    2.640248
      17B2u    2.640248    27Ag     2.652486    24B1u    2.654008
      15B2g    2.674431    15B3g    2.674431    10B1g    2.684316
      28Ag     2.684316    18B3u    2.703316    18B2u    2.703316
       8Au     2.717678    25B1u    2.717678     9Au     2.787503
      26B1u    2.787503    16B2g    2.795538    16B3g    2.795538
      29Ag     2.867406    17B3g    2.876007    17B2g    2.876007
      10Au     2.898181    27B1u    2.898181    19B3u    2.931645
      19B2u    2.931645    11B1g    2.947927    30Ag     2.947927
      18B3g    3.053114    18B2g    3.053114    28B1u    3.053873
      20B2u    3.153866    20B3u    3.153866    31Ag     3.161772
      11Au     3.165270    29B1u    3.165270    19B3g    3.173413
      19B2g    3.173413    21B3u    3.184623    21B2u    3.184623
      12B1g    3.186503    32Ag     3.186503    13B1g    3.223065
      33Ag     3.223065    30B1u    3.232479    20B3g    3.235495
      20B2g    3.235495    21B3g    3.244926    21B2g    3.244926
      22B2u    3.265178    22B3u    3.265178    31B1u    3.306971
      12Au     3.306971    32B1u    3.336969    34Ag     3.381185
      33B1u    3.585788    22B2g    3.615300    22B3g    3.615300
      13Au     3.628488    34B1u    3.628488    23B3u    3.665691
      23B2u    3.665691    35B1u    3.944258    23B3g    4.345536
      23B2g    4.345536    35Ag     4.568902    24B3u    5.124625
      24B2u    5.124625    36Ag     5.130211    14B1g    5.168088
      37Ag     5.168088    25B3u    5.193941    25B2u    5.193941
      15B1g    5.277876    38Ag     5.277876    39Ag     5.295852
      36B1u    5.310610    14Au     5.310610    16B1g    5.327038
      40Ag     5.327038    26B2u    5.332692    26B3u    5.332692
      24B2g    5.343898    24B3g    5.343898    17B1g    5.366691
      41Ag     5.366691    37B1u    5.394771    15Au     5.394771
      38B1u    5.404174    27B2u    5.440613    27B3u    5.440613
      42Ag     5.460893    18B1g    5.460893    39B1u    5.462710
      16Au     5.462710    25B3g    5.468120    25B2g    5.468120
      28B2u    5.486132    28B3u    5.486132    26B3g    5.495135
      26B2g    5.495135    40B1u    5.516079    17Au     5.516079
      19B1g    5.604561    43Ag     5.604561    29B3u    5.634503
      29B2u    5.634503    30B2u    5.644147    30B3u    5.644147
      27B3g    5.647597    27B2g    5.647597    44Ag     5.652342
      28B2g    5.655693    28B3g    5.655693    18Au     5.733064
      41B1u    5.733064    42B1u    5.870272    19Au     5.870272
      20B1g    5.904077    45Ag     5.904077    29B3g    5.911227
      29B2g    5.911227    43B1u    5.921891    30B3g    6.012433
      30B2g    6.012433    31B2u    6.042496    31B3u    6.042496
      46Ag     6.065582    44B1u    6.276213    32B3u    6.291461
      32B2u    6.291461    47Ag     6.303972    21B1g    6.303972
      45B1u    6.304949    20Au     6.304949    31B3g    6.330732
      31B2g    6.330732    46B1u    6.460302    32B3g    6.502238
      32B2g    6.502238    33B2u    6.506066    33B3u    6.506066
      47B1u    6.593210    48Ag     6.638986    22B1g    6.638986
      48B1u    6.670387    21Au     6.670387    49B1u    6.741373
      22Au     6.741373    49Ag     6.766529    33B3g    6.972864
      33B2g    6.972864    34B2u    7.012551    34B3u    7.012551
      50Ag     7.182231    34B3g    7.551744    34B2g    7.551744
      50B1u    7.599900    35B2u    8.379968    35B3u    8.379968
      35B3g    8.554333    35B2g    8.554333    51B1u    9.030058
      51Ag     9.423290    36B3u   10.144772    36B2u   10.144772
      23B1g   10.162705    52Ag    10.162705    52B1u   10.187931
      23Au    10.187931    24B1g   10.196074    53Ag    10.196074
      36B3g   10.224778    36B2g   10.224778    24Au    10.310187
      53B1u   10.310187    37B2u   10.323158    37B3u   10.323158
      54B1u   10.362560    37B3g   10.453603    37B2g   10.453603
      54Ag    10.538583    38B2u   11.139749    38B3u   11.139749
      55Ag    11.152794    25B1g   11.152794    56Ag    11.190892
      26B1g   11.190892    39B2u   11.242964    39B3u   11.242964
      57Ag    11.263402    27B1g   11.263402    38B3g   11.264194
      38B2g   11.264194    55B1u   11.264861    25Au    11.264861
      40B2u   11.287022    40B3u   11.287022    56B1u   11.305183
      26Au    11.305183    39B3g   11.427575    39B2g   11.427575
      58Ag    11.466278    59Ag    11.490013    28B1g   11.490013
      41B2u   11.506606    41B3u   11.506606    42B3u   11.519731
      42B2u   11.519731    40B2g   11.533076    40B3g   11.533076
      27Au    11.568463    57B1u   11.568463    28Au    11.660021
      58B1u   11.660021    29B1g   11.669984    60Ag    11.669984
      59B1u   11.702628    41B2g   11.709574    41B3g   11.709574
      42B3g   11.782569    42B2g   11.782569    43B2u   11.895995
      43B3u   11.895995    61Ag    11.919153    60B1u   11.922885
      61B1u   11.958643    29Au    11.958643    43B3g   12.230033
      43B2g   12.230033    44B3u   12.664597    44B2u   12.664597
      30B1g   12.670905    62Ag    12.670905    44B3g   12.692855
      44B2g   12.692855    30Au    12.774081    62B1u   12.774081
      45B2u   12.861522    45B3u   12.861522    63B1u   12.956357
      45B3g   13.041598    45B2g   13.041598    63Ag    13.142205
      64Ag    13.660968    31B1g   13.660968    64B1u   13.724015
      31Au    13.724015    46B2u   13.803281    46B3u   13.803281
      46B3g   14.027758    46B2g   14.027758    65Ag    14.196178
      65B1u   14.278327    66Ag    15.327352    66B1u   16.552323
      47B2u   35.313146    47B3u   35.313146    47B3g   35.532039
      47B2g   35.532039    67B1u   36.136502    67Ag    36.706868
      68Ag    39.413236    32B1g   39.413236    68B1u   39.453082
      32Au    39.453082    48B2u   39.478239    48B3u   39.478239
      48B3g   39.640063    48B2g   39.640063    69Ag    39.805463
      69B1u   39.827880    70Ag   285.121676    70B1u  286.524530

    Beta Occupied:

       1Ag  -104.597290     1B1u -104.597289     2Ag   -10.320706
       2B1u  -10.320662     1B2g   -7.787520     1B3g   -7.787520
       1B3u   -7.787519     1B2u   -7.787519     3Ag    -7.775808
       3B1u   -7.775789     4Ag    -0.813279     4B1u   -0.753999
       2B3u   -0.245443     2B2u   -0.245443     2B2g   -0.202956
       2B3g   -0.202956     5Ag    -0.188391

    Beta Virtual:

       5B1u    0.153637     6Ag     0.201275     3B3u    0.203661
       3B2u    0.203661     6B1u    0.206287     3B2g    0.215493
       3B3g    0.215493     7Ag     0.260949     7B1u    0.316198
       8Ag     0.375424     1B1g    0.375424     4B2u    0.418601
       4B3u    0.418601     8B1u    0.423390     9B1u    0.431413
       1Au     0.431413     9Ag     0.437071     4B3g    0.452796
       4B2g    0.452796     5B3u    0.495915     5B2u    0.495915
       5B2g    0.536148     5B3g    0.536148    10Ag     0.547786
      10B1u    0.579979    11Ag     0.654575     6B3u    0.710575
       6B2u    0.710575     7B2u    0.725556     7B3u    0.725556
      12Ag     0.730761     2B1g    0.730761    13Ag     0.773345
      14Ag     0.783915     3B1g    0.783915     6B3g    0.792438
       6B2g    0.792438    11B1u    0.797134     2Au     0.797134
      12B1u    0.806293     7B2g    0.819505     7B3g    0.819505
      13B1u    0.885769     8B3u    0.914120     8B2u    0.914120
      14B1u    0.918638     3Au     0.918638    15Ag     1.015158
       8B3g    1.068846     8B2g    1.068846    15B1u    1.117570
      16Ag     1.183081    17Ag     1.192697     4B1g    1.192697
       9B2u    1.196545     9B3u    1.196545    10B3u    1.234589
      10B2u    1.234589     9B2g    1.249958     9B3g    1.249958
       4Au     1.277775    16B1u    1.277775    18Ag     1.330129
       5B1g    1.330129    11B2u    1.400501    11B3u    1.400501
      10B2g    1.405429    10B3g    1.405429    19Ag     1.407369
      11B2g    1.425924    11B3g    1.425924    17B1u    1.445860
      18B1u    1.450965     5Au     1.450965     6B1g    1.525242
      20Ag     1.525242    19B1u    1.563142    12B3u    1.613241
      12B2u    1.613241    13B3u    1.614813    13B2u    1.614813
      21Ag     1.623129     7B1g    1.623129    12B3g    1.664545
      12B2g    1.664545    22Ag     1.718367     6Au     1.720775
      20B1u    1.720775    14B3u    1.747947    14B2u    1.747947
      21B1u    1.770022    22B1u    1.786979     7Au     1.786979
      23Ag     1.813228    13B3g    1.853959    13B2g    1.853959
      23B1u    1.886573    24Ag     2.197522    14B3g    2.214818
      14B2g    2.214818    15B2u    2.509070    15B3u    2.509070
       8B1g    2.534915    25Ag     2.534915    26Ag     2.558258
       9B1g    2.558258    16B2u    2.613116    16B3u    2.613116
      17B3u    2.639591    17B2u    2.639591    27Ag     2.657255
      24B1u    2.672519    15B2g    2.673789    15B3g    2.673789
      10B1g    2.683988    28Ag     2.683988    18B3u    2.706486
      18B2u    2.706486     8Au     2.717682    25B1u    2.717682
       9Au     2.787767    26B1u    2.787767    16B2g    2.799109
      16B3g    2.799109    29Ag     2.876159    17B2g    2.882782
      17B3g    2.882782    27B1u    2.903857    10Au     2.903857
      19B2u    2.940076    19B3u    2.940076    11B1g    2.952092
      30Ag     2.952092    18B3g    3.055402    18B2g    3.055402
      28B1u    3.070666    20B3u    3.158069    20B2u    3.158069
      29B1u    3.174101    11Au     3.174101    19B2g    3.176798
      19B3g    3.176798    31Ag     3.186122    21B3u    3.186738
      21B2u    3.186738    32Ag     3.199737    12B1g    3.199737
      33Ag     3.225751    13B1g    3.225751    20B3g    3.236561
      20B2g    3.236561    30B1u    3.250090    21B3g    3.261869
      21B2g    3.261869    22B3u    3.284685    22B2u    3.284685
      31B1u    3.313213    12Au     3.313213    32B1u    3.345651
      34Ag     3.403864    33B1u    3.601972    22B3g    3.627534
      22B2g    3.627534    34B1u    3.631929    13Au     3.631929
      23B2u    3.674702    23B3u    3.674702    35B1u    3.963282
      23B3g    4.352365    23B2g    4.352365    35Ag     4.582250
      24B2u    5.127974    24B3u    5.127974    36Ag     5.135995
      37Ag     5.170672    14B1g    5.170672    25B3u    5.197629
      25B2u    5.197629    15B1g    5.278610    38Ag     5.278610
      39Ag     5.302840    36B1u    5.311914    14Au     5.311914
      40Ag     5.338703    16B1g    5.338703    26B2u    5.339317
      26B3u    5.339317    24B2g    5.352253    24B3g    5.352253
      17B1g    5.368992    41Ag     5.368992    37B1u    5.406232
      15Au     5.406232    38B1u    5.419114    27B2u    5.441783
      27B3u    5.441783    42Ag     5.460487    18B1g    5.460487
      39B1u    5.462305    16Au     5.462305    25B3g    5.469602
      25B2g    5.469602    28B3u    5.499721    28B2u    5.499721
      26B3g    5.508127    26B2g    5.508127    40B1u    5.518841
      17Au     5.518841    19B1g    5.608353    43Ag     5.608353
      29B3u    5.634716    29B2u    5.634716    30B2u    5.649776
      30B3u    5.649776    27B3g    5.651143    27B2g    5.651143
      28B2g    5.655640    28B3g    5.655640    44Ag     5.666102
      18Au     5.736065    41B1u    5.736065    42B1u    5.876450
      19Au     5.876450    20B1g    5.911650    45Ag     5.911650
      29B2g    5.920296    29B3g    5.920296    43B1u    5.931976
      30B3g    6.017437    30B2g    6.017437    31B3u    6.053829
      31B2u    6.053829    46Ag     6.080143    44B1u    6.284145
      32B3u    6.293684    32B2u    6.293684    45B1u    6.314644
      20Au     6.314644    47Ag     6.314820    21B1g    6.314820
      31B3g    6.332679    31B2g    6.332679    46B1u    6.465653
      32B2g    6.514488    32B3g    6.514488    33B3u    6.519126
      33B2u    6.519126    47B1u    6.607631    48Ag     6.640975
      22B1g    6.640975    48B1u    6.675263    21Au     6.675263
      49B1u    6.745047    22Au     6.745047    49Ag     6.782494
      33B2g    6.981120    33B3g    6.981120    34B3u    7.020560
      34B2u    7.020560    50Ag     7.197622    34B2g    7.559036
      34B3g    7.559036    50B1u    7.615425    35B3u    8.384844
      35B2u    8.384844    35B2g    8.559448    35B3g    8.559448
      51B1u    9.051012    51Ag     9.439753    36B3u   10.151462
      36B2u   10.151462    23B1g   10.163988    52Ag    10.163988
      52B1u   10.189304    23Au    10.189304    24B1g   10.206703
      53Ag    10.206703    36B3g   10.231833    36B2g   10.231833
      24Au    10.321009    53B1u   10.321009    37B3u   10.336529
      37B2u   10.336529    54B1u   10.375591    37B2g   10.466307
      37B3g   10.466307    54Ag    10.553105    38B2u   11.147285
      38B3u   11.147285    55Ag    11.162116    25B1g   11.162116
      56Ag    11.196217    26B1g   11.196217    39B2u   11.246248
      39B3u   11.246248    57Ag    11.263782    27B1g   11.263782
      55B1u   11.265241    25Au    11.265241    38B3g   11.267714
      38B2g   11.267714    40B2u   11.297037    40B3u   11.297037
      56B1u   11.311492    26Au    11.311492    39B3g   11.436062
      39B2g   11.436062    58Ag    11.477777    59Ag    11.495535
      28B1g   11.495535    41B2u   11.514817    41B3u   11.514817
      42B3u   11.520706    42B2u   11.520706    40B2g   11.533824
      40B3g   11.533824    27Au    11.572903    57B1u   11.572903
      58B1u   11.670038    28Au    11.670038    29B1g   11.679291
      60Ag    11.679291    59B1u   11.712663    41B3g   11.716291
      41B2g   11.716291    42B2g   11.793744    42B3g   11.793744
      43B3u   11.905129    43B2u   11.905129    61Ag    11.927521
      60B1u   11.933278    61B1u   11.966200    29Au    11.966200
      43B2g   12.237440    43B3g   12.237440    44B3u   12.665458
      44B2u   12.665458    30B1g   12.675375    62Ag    12.675375
      44B3g   12.693730    44B2g   12.693730    30Au    12.778691
      62B1u   12.778691    45B3u   12.868344    45B2u   12.868344
      63B1u   12.964130    45B2g   13.048322    45B3g   13.048322
      63Ag    13.150735    64Ag    13.663064    31B1g   13.663064
      64B1u   13.726296    31Au    13.726296    46B3u   13.812073
      46B2u   13.812073    46B2g   14.036877    46B3g   14.036877
      65Ag    14.206248    65B1u   14.288922    66Ag    15.335542
      66B1u   16.560054    47B2u   35.316446    47B3u   35.316446
      47B3g   35.535364    47B2g   35.535364    67B1u   36.154648
      67Ag    36.724762    68Ag    39.415906    32B1g   39.415906
      68B1u   39.455754    32Au    39.455754    48B3u   39.488774
      48B2u   39.488774    48B2g   39.650517    48B3g   39.650517
      69Ag    39.818569    69B1u   39.841041    70Ag   285.125057
      70B1u  286.527919

    Final Occupation by Irrep:
             Ag   B1g   B2g   B3g    Au   B1u   B2u   B3u
    DOCC [     5,    0,    2,    2,    0,    4,    2,    2 ]
    SOCC [     0,    0,    0,    0,    0,    1,    0,    0 ]

  Energy converged.

  @UHF Final Energy:  -919.08765287806932

   => Energetics <=

    Nuclear Repulsion Energy =             59.4784152056529294
    One-Electron Energy =               -1398.0955993647844480
    Two-Electron Energy =                 419.5295312810621908
    Total Energy =                       -919.0876528780693206

  UHF NO Occupations:
  HONO-2 :    4B1u 1.9984803
  HONO-1 :    5 Ag 1.9925339
  HONO-0 :    5B1u 1.0000000
  LUNO+0 :    6 Ag 0.0074661
  LUNO+1 :    6B1u 0.0015197
  LUNO+2 :    7 Ag 0.0009920
  LUNO+3 :    3B2g 0.0003310

Properties will be evaluated at   0.000000,   0.000000,   0.000000 Bohr

Properties computed using the SCF density matrix

  Nuclear Dipole Moment: (a.u.)
     X:     0.0000      Y:     0.0000      Z:    -0.0000

  Electronic Dipole Moment: (a.u.)
     X:     0.0000      Y:     0.0000      Z:     0.0000

  Dipole Moment: (a.u.)
     X:     0.0000      Y:     0.0000      Z:    -0.0000     Total:     0.0000

  Dipole Moment: (Debye)
     X:     0.0000      Y:     0.0000      Z:    -0.0000     Total:     0.0000

*** tstop() called on n412-050.vsc4.prov at Fri Oct 30 14:45:42 2020
Module time:
	user time   =    1198.69 seconds =      19.98 minutes
	system time =      62.28 seconds =       1.04 minutes
	total time  =       1205 seconds =      20.08 minutes
Total time:
	user time   =    1198.69 seconds =      19.98 minutes
	system time =      62.28 seconds =       1.04 minutes
	total time  =       1205 seconds =      20.08 minutes

*** tstart() called on n412-050.vsc4.prov
*** at Fri Oct 30 14:45:42 2020

	Wfn Parameters:
	--------------------
	Wavefunction         = CCSD
	Number of irreps     = 8
	Number of MOs        = 396
	Number of active MOs = 386
	AO-Basis             = NONE
	Semicanonical        = false
	Reference            = UHF
	Print Level          = 1

	IRREP	# MOs	# FZDC	# DOCC	# SOCC	# VIRT	# FZVR
	-----	-----	------	------	------	------	------
	 Ag	   70	    3	    2	    0	    65	    0
	 B1g	   32	    0	    0	    0	    32	    0
	 B2g	   48	    1	    1	    0	    46	    0
	 B3g	   48	    1	    1	    0	    46	    0
	 Au	   32	    0	    0	    0	    32	    0
	 B1u	   70	    3	    1	    1	    65	    0
	 B2u	   48	    1	    1	    0	    46	    0
	 B3u	   48	    1	    1	    0	    46	    0
	Transforming integrals...
	IWL integrals will be deleted.
	(OO|OO)...
	Presorting SO-basis two-electron integrals.
	Sorting File: SO Ints (nn|nn) nbuckets = 1
	Transforming the one-electron integrals and constructing Fock matrices
	Starting AA/AB first half-transformation.
	Sorting AA/AB half-transformed integrals.
	Starting BB first half-transformation.
	Sorting BB half-transformed integrals.
	First half integral transformation complete.
	Starting AA second half-transformation.
	Starting AB second half-transformation.
	Starting BB second half-transformation.
	Two-electron integral transformation complete.
	(OO|OV)...
	Starting AA second half-transformation.
	Starting AB second half-transformation.
	Starting BB second half-transformation.
	Two-electron integral transformation complete.
	(OO|VV)...
	Starting AA second half-transformation.
	Starting AB second half-transformation.
	Starting BB second half-transformation.
	Two-electron integral transformation complete.
	(OV|OO)...
	Starting AA/AB first half-transformation.
	Sorting AA/AB half-transformed integrals.
	Starting BB first half-transformation.
	Sorting BB half-transformed integrals.
	First half integral transformation complete.
	Starting AA second half-transformation.
	Starting AB second half-transformation.
	Starting BB second half-transformation.
	Two-electron integral transformation complete.
	(OV|OV)...
	Starting AA second half-transformation.
	Starting AB second half-transformation.
	Starting BB second half-transformation.
	Two-electron integral transformation complete.

      * MP2 total energy                      = -919.543131738823035
      * CCSD total energy                     = -919.565438310516242
*** Psi4 exiting successfully. Buy a developer a beer!
