                               Psi4 1.2a1.dev938

  ==> Input File <==

--------------------------------------------------------------------------
# Any line starting with the # character is a comment line
memory 250000 mb
molecule molecule{
-1 2
Cl         0.0000000000        0.0000000000        1.2856110301
Cl         0.0000000000        0.0000000000       -1.2856110301
}

set {
  reference uhf
  basis aug-cc-pv(t+d)z
  scf_type OUT_OF_CORE
  freeze_core true
}

energy('ccsd')
--------------------------------------------------------------------------

    Molecular point group: d2h

    Geometry (in Angstrom), charge = -1, multiplicity = 2:

       Center              X                  Y                   Z               Mass
    ------------   -----------------  -----------------  -----------------  -----------------
          CL          0.000000000000     0.000000000000     1.285611030100    34.968852682000
          CL          0.000000000000     0.000000000000    -1.285611030100    34.968852682000

  Charge       = -1
  Multiplicity = 2
  Basis Set: AUG-CC-PV(T+D)Z
    Blend: AUG-CC-PV(T+D)Z

    Orbital Energies (a.u.)
    -----------------------

    Alpha Occupied:

       1B1u -104.604317     1Ag  -104.604316     2B1u  -10.328945
       2Ag   -10.328939     1B3g   -7.805982     1B2u   -7.805972
       3Ag    -7.791929     3B1u   -7.791927     1B2g   -7.791633
       1B3u   -7.791624     4Ag    -0.876352     4B1u   -0.831728
       5Ag    -0.307494     2B2u   -0.302739     2B3g   -0.266822
       2B3u   -0.260279     2B2g   -0.221009     5B1u   -0.155846

    Alpha Virtual:

       6B1u    0.218807     3B2u    0.260444     3B3u    0.265162
       6Ag     0.266745     3B3g    0.277868     3B2g    0.281815
       7Ag     0.323839     7B1u    0.420054     8Ag     0.497834
       1B1g    0.497853     4B2u    0.519181     4B3u    0.530786
       8B1u    0.570992     1Au     0.571122     9Ag     0.621432
       9B1u    0.630683     4B3g    0.662781     4B2g    0.675483
       5B2u    0.803929     5B3u    0.823347     5B3g    0.887297
       5B2g    0.906010    10Ag     0.915541    10B1u    0.997671
      11Ag     1.054478     6B2u    1.054896     2B1g    1.060845
       6B3u    1.073820    12Ag     1.075920    11B1u    1.086065
       2Au     1.087637    13Ag     1.112622     6B3g    1.131546
       6B2g    1.154012    12B1u    1.169034     3B1g    1.306549
      14Ag     1.306648     7B2u    1.361533     7B3u    1.361591
      13B1u    1.397255     7B3g    1.419417     7B2g    1.419421
       8B2u    1.419583     8B3u    1.435418     3Au     1.574198
      14B1u    1.574570    15Ag     1.726047     8B3g    1.842245
       8B2g    1.858416    15B1u    2.053012     9B2u    2.504966
      16Ag     2.511079     4B1g    2.514789     9B3u    2.525513
      17Ag     2.549520     4Au     2.551659    16B1u    2.552231
       9B3g    2.666123     9B2g    2.687444    17B1u    2.818332
      10B2u    2.867559    10B3u    2.897318    10B3g    2.906187
      10B2g    2.935357    18Ag     2.968340    11B2u    3.246209
      11B3u    3.246251    19Ag     3.253791     5B1g    3.253831
      11B3g    3.281019    11B2g    3.281051    18B1u    3.352568
      19B1u    3.359283     5Au     3.362107    12B2u    3.397567
      12B3u    3.420938    20B1u    3.425395    12B3g    3.448997
      12B2g    3.471728    20Ag     3.644913    21Ag     5.373669
      21B1u    6.420370    13B2u    9.002873    22Ag     9.004700
       6B1g    9.006260    13B3u    9.017863    22B1u    9.027394
       6Au     9.027499    23Ag     9.051056    13B3g    9.089101
      13B2g    9.104183    23B1u    9.323722

    Beta Occupied:

       1Ag  -104.597388     1B1u -104.597388     2Ag   -10.321870
       2B1u  -10.321856     3Ag    -7.787982     3B1u   -7.787978
       1B2g   -7.787636     1B3u   -7.787626     1B3g   -7.776625
       1B2u   -7.776617     4Ag    -0.813767     4B1u   -0.755194
       5Ag    -0.295584     2B3u   -0.249000     2B2g   -0.206964
       5B1u   -0.140872     2B2u   -0.118701

    Beta Virtual:

       2B3g    0.119728     6B1u    0.219318     3B3u    0.265286
       6Ag     0.267249     3B2u    0.270781     3B2g    0.282017
       3B3g    0.289793     7Ag     0.319544     7B1u    0.422390
       1B1g    0.504064     8Ag     0.504171     4B3u    0.528918
       4B2u    0.532894     1Au     0.586538     8B1u    0.586604
       9Ag     0.629264     9B1u    0.634304     4B2g    0.675681
       4B3g    0.683709     5B3u    0.826849     5B2u    0.847441
       5B2g    0.908888    10Ag     0.919922     5B3g    0.922418
      10B1u    1.004218     6B3u    1.075369    11Ag     1.075603
       6B2u    1.080929     2B1g    1.100116    12Ag     1.101083
      13Ag     1.125639    11B1u    1.126042     2Au     1.126844
       6B2g    1.156780     6B3g    1.170398    12B1u    1.183459
       3B1g    1.310582    14Ag     1.310674     7B3u    1.371022
       7B2u    1.371022    13B1u    1.404875     7B2g    1.430569
       7B3g    1.430570     8B2u    1.433356     8B3u    1.435502
       3Au     1.582201    14B1u    1.582216    15Ag     1.731999
       8B3g    1.854402     8B2g    1.859119    15B1u    2.066340
       9B2u    2.522409     9B3u    2.527394    16Ag     2.532455
       4B1g    2.532845    17Ag     2.552762    16B1u    2.569336
       4Au     2.569364     9B3g    2.683398     9B2g    2.689516
      17B1u    2.823215    10B3u    2.902955    10B2u    2.913139
      10B2g    2.940708    10B3g    2.950293    18Ag     2.975102
      19Ag     3.270909     5B1g    3.270951    11B2u    3.271746
      11B3u    3.271747    11B3g    3.306151    11B2g    3.306152
      18B1u    3.356109    19B1u    3.378199     5Au     3.378319
      12B2u    3.417598    12B3u    3.423286    20B1u    3.432523
      12B3g    3.468302    12B2g    3.473947    20Ag     3.652718
      21Ag     5.386257    21B1u    6.432473    13B2u    9.010745
      22Ag     9.013658     6B1g    9.014221    13B3u    9.019113
      22B1u    9.035458     6Au     9.035500    23Ag     9.053425
      13B3g    9.096972    13B2g    9.105421    23B1u    9.326556

    Final Occupation by Irrep:
             Ag   B1g   B2g   B3g    Au   B1u   B2u   B3u
    DOCC [     5,    0,    2,    1,    0,    5,    2,    2 ]
    SOCC [     0,    0,    0,    1,    0,    0,    0,    0 ]

  Energy converged.

  @UHF Final Energy:  -919.00926931983122

   => Energetics <=

    Nuclear Repulsion Energy =             59.4784152056529294
    One-Electron Energy =               -1397.9844681465510803
    Two-Electron Energy =                 419.4967836210669248
    PCM Polarization Energy =               0.0000000000000000
    Total Energy =                       -919.0092693198312190

    Alert: EFP and PCM quantities not currently incorporated into SCF psivars.
  UHF NO Occupations:
  HONO-2 :    5B1u 1.9984515
  HONO-1 :    2B2u 1.9813036
  HONO-0 :    2B3g 1.0000000
  LUNO+0 :    3B2u 0.0186964
  LUNO+1 :    6B1u 0.0015485
  LUNO+2 :    6 Ag 0.0014890
  LUNO+3 :    7B1u 0.0002059

Properties will be evaluated at   0.000000,   0.000000,   0.000000 Bohr

Properties computed using the SCF density matrix

  Nuclear Dipole Moment: (a.u.)
     X:     0.0000      Y:     0.0000      Z:    -0.0000

  Electronic Dipole Moment: (a.u.)
     X:     0.0000      Y:     0.0000      Z:     0.0000

  Dipole Moment: (a.u.)
     X:     0.0000      Y:     0.0000      Z:    -0.0000     Total:     0.0000

  Dipole Moment: (Debye)
     X:     0.0000      Y:     0.0000      Z:    -0.0000     Total:     0.0000

*** tstop() called on cqc05 at Thu Aug 20 20:00:19 2020
Module time:
	user time   =       3.41 seconds =       0.06 minutes
	system time =       0.10 seconds =       0.00 minutes
	total time  =          2 seconds =       0.03 minutes
Total time:
	user time   =       3.41 seconds =       0.06 minutes
	system time =       0.10 seconds =       0.00 minutes
	total time  =          2 seconds =       0.03 minutes

*** tstart() called on cqc05
*** at Thu Aug 20 20:00:19 2020

	Wfn Parameters:
	--------------------
	Wavefunction         = CCSD
	Number of irreps     = 8
	Number of MOs        = 110
	Number of active MOs = 100
	AO-Basis             = NONE
	Semicanonical        = false
	Reference            = UHF
	Print Level          = 1

	IRREP	# MOs	# FZDC	# DOCC	# SOCC	# VIRT	# FZVR
	-----	-----	------	------	------	------	------
	 Ag	   23	    3	    2	    0	    18	    0
	 B1g	   6	    0	    0	    0	    6	    0
	 B2g	   13	    1	    1	    0	    11	    0
	 B3g	   13	    1	    0	    1	    11	    0
	 Au	   6	    0	    0	    0	    6	    0
	 B1u	   23	    3	    2	    0	    18	    0
	 B2u	   13	    1	    1	    0	    11	    0
	 B3u	   13	    1	    1	    0	    11	    0
	Transforming integrals...
	IWL integrals will be deleted.
	(OO|OO)...
	Presorting SO-basis two-electron integrals.
	Sorting File: SO Ints (nn|nn) nbuckets = 1
	Transforming the one-electron integrals and constructing Fock matrices
	Starting AA/AB first half-transformation.
	Sorting AA/AB half-transformed integrals.
	Starting BB first half-transformation.
	Sorting BB half-transformed integrals.
	First half integral transformation complete.
	Starting AA second half-transformation.
	Starting AB second half-transformation.
	Starting BB second half-transformation.
	Two-electron integral transformation complete.
	(OO|OV)...
	Starting AA second half-transformation.
	Starting AB second half-transformation.
	Starting BB second half-transformation.
	Two-electron integral transformation complete.
	(OO|VV)...
	Starting AA second half-transformation.
	Starting AB second half-transformation.
	Starting BB second half-transformation.
	Two-electron integral transformation complete.
	(OV|OO)...
	Starting AA/AB first half-transformation.
	Sorting AA/AB half-transformed integrals.
	Starting BB first half-transformation.
	Sorting BB half-transformed integrals.
	First half integral transformation complete.
	Starting AA second half-transformation.
	Starting AB second half-transformation.
	Starting BB second half-transformation.
	Two-electron integral transformation complete.
	(OV|OV)...
	Starting AA second half-transformation.
	Starting AB second half-transformation.
	Starting BB second half-transformation.
	Two-electron integral transformation complete.
	(OV|VV)...
	Starting AA second half-transformation.
	Starting AB second half-transformation.
	Starting BB second half-transformation.
	Two-electron integral transformation complete.
	(VV|OO)...
	Starting AA/AB first half-transformation.
	Sorting AA/AB half-transformed integrals.
	Starting BB first half-transformation.
	Sorting BB half-transformed integrals.
	First half integral transformation complete.
	Starting AA second half-transformation.
	Starting AB second half-transformation.
	Starting BB second half-transformation.
	Two-electron integral transformation complete.
	(VV|OV)...
	Starting AA second half-transformation.
	Starting AB second half-transformation.
	Starting BB second half-transformation.
	Two-electron integral transformation complete.
	(VV|VV)...
	Starting AA second half-transformation.
	Starting AB second half-transformation.
	Starting BB second half-transformation.
	Two-electron integral transformation complete.
	Frozen core energy     =   -938.88188387139178

	Size of irrep 0 of <AB|CD> integrals:      0.309 (MW) /      2.473 (MB)
	Size of irrep 1 of <AB|CD> integrals:      0.210 (MW) /      1.678 (MB)
	Size of irrep 2 of <AB|CD> integrals:      0.279 (MW) /      2.230 (MB)
	Size of irrep 3 of <AB|CD> integrals:      0.279 (MW) /      2.230 (MB)
	Size of irrep 4 of <AB|CD> integrals:      0.210 (MW) /      1.678 (MB)
	Size of irrep 5 of <AB|CD> integrals:      0.362 (MW) /      2.899 (MB)
	Size of irrep 6 of <AB|CD> integrals:      0.279 (MW) /      2.230 (MB)
	Size of irrep 7 of <AB|CD> integrals:      0.279 (MW) /      2.230 (MB)
	Total:                                     2.206 (MW) /     17.650 (MB)

	Size of irrep 0 of <ab|cd> integrals:      0.321 (MW) /      2.572 (MB)
	Size of irrep 1 of <ab|cd> integrals:      0.220 (MW) /      1.760 (MB)
	Size of irrep 2 of <ab|cd> integrals:      0.285 (MW) /      2.281 (MB)
	Size of irrep 3 of <ab|cd> integrals:      0.298 (MW) /      2.385 (MB)
	Size of irrep 4 of <ab|cd> integrals:      0.220 (MW) /      1.760 (MB)
	Size of irrep 5 of <ab|cd> integrals:      0.376 (MW) /      3.006 (MB)
	Size of irrep 6 of <ab|cd> integrals:      0.298 (MW) /      2.385 (MB)
	Size of irrep 7 of <ab|cd> integrals:      0.285 (MW) /      2.281 (MB)
	Total:                                     2.304 (MW) /     18.430 (MB)

	Size of irrep 0 of <Ab|Cd> integrals:      1.476 (MW) /     11.810 (MB)
	Size of irrep 1 of <Ab|Cd> integrals:      0.859 (MW) /      6.875 (MB)
	Size of irrep 2 of <Ab|Cd> integrals:      1.128 (MW) /      9.023 (MB)
	Size of irrep 3 of <Ab|Cd> integrals:      1.153 (MW) /      9.228 (MB)
	Size of irrep 4 of <Ab|Cd> integrals:      0.859 (MW) /      6.875 (MB)
	Size of irrep 5 of <Ab|Cd> integrals:      1.476 (MW) /     11.810 (MB)
	Size of irrep 6 of <Ab|Cd> integrals:      1.153 (MW) /      9.228 (MB)
	Size of irrep 7 of <Ab|Cd> integrals:      1.128 (MW) /      9.023 (MB)
	Total:                                     9.234 (MW) /     73.870 (MB)

	Size of irrep 0 of <IA|BC> integrals:      0.140 (MW) /      1.117 (MB)
	Size of irrep 1 of <IA|BC> integrals:      0.062 (MW) /      0.498 (MB)
	Size of irrep 2 of <IA|BC> integrals:      0.097 (MW) /      0.777 (MB)
	Size of irrep 3 of <IA|BC> integrals:      0.097 (MW) /      0.777 (MB)
	Size of irrep 4 of <IA|BC> integrals:      0.062 (MW) /      0.498 (MB)
	Size of irrep 5 of <IA|BC> integrals:      0.140 (MW) /      1.117 (MB)
	Size of irrep 6 of <IA|BC> integrals:      0.097 (MW) /      0.777 (MB)
	Size of irrep 7 of <IA|BC> integrals:      0.097 (MW) /      0.777 (MB)
	Total:                                     0.793 (MW) /      6.340 (MB)

	Size of irrep 0 of <ia|bc> integrals:      0.129 (MW) /      1.031 (MB)
	Size of irrep 1 of <ia|bc> integrals:      0.054 (MW) /      0.435 (MB)
	Size of irrep 2 of <ia|bc> integrals:      0.092 (MW) /      0.735 (MB)
	Size of irrep 3 of <ia|bc> integrals:      0.083 (MW) /      0.664 (MB)
	Size of irrep 4 of <ia|bc> integrals:      0.054 (MW) /      0.435 (MB)
	Size of irrep 5 of <ia|bc> integrals:      0.130 (MW) /      1.040 (MB)
	Size of irrep 6 of <ia|bc> integrals:      0.083 (MW) /      0.664 (MB)
	Size of irrep 7 of <ia|bc> integrals:      0.092 (MW) /      0.735 (MB)
	Total:                                     0.717 (MW) /      5.738 (MB)

	Size of irrep 0 of <Ia|Bc> integrals:      0.142 (MW) /      1.137 (MB)
	Size of irrep 1 of <Ia|Bc> integrals:      0.064 (MW) /      0.512 (MB)
	Size of irrep 2 of <Ia|Bc> integrals:      0.098 (MW) /      0.782 (MB)
	Size of irrep 3 of <Ia|Bc> integrals:      0.101 (MW) /      0.808 (MB)
	Size of irrep 4 of <Ia|Bc> integrals:      0.064 (MW) /      0.512 (MB)
	Size of irrep 5 of <Ia|Bc> integrals:      0.142 (MW) /      1.137 (MB)
	Size of irrep 6 of <Ia|Bc> integrals:      0.101 (MW) /      0.808 (MB)
	Size of irrep 7 of <Ia|Bc> integrals:      0.098 (MW) /      0.782 (MB)
	Total:                                     0.810 (MW) /      6.476 (MB)

	Size of irrep 0 of <iA|bC> integrals:      0.128 (MW) /      1.021 (MB)
	Size of irrep 1 of <iA|bC> integrals:      0.053 (MW) /      0.423 (MB)
	Size of irrep 2 of <iA|bC> integrals:      0.091 (MW) /      0.731 (MB)
	Size of irrep 3 of <iA|bC> integrals:      0.079 (MW) /      0.636 (MB)
	Size of irrep 4 of <iA|bC> integrals:      0.053 (MW) /      0.423 (MB)
	Size of irrep 5 of <iA|bC> integrals:      0.128 (MW) /      1.021 (MB)
	Size of irrep 6 of <iA|bC> integrals:      0.079 (MW) /      0.636 (MB)
	Size of irrep 7 of <iA|bC> integrals:      0.091 (MW) /      0.731 (MB)
	Total:                                     0.702 (MW) /      5.620 (MB)

	Size of irrep 0 of tIjAb amplitudes:       0.013 (MW) /      0.107 (MB)
	Size of irrep 1 of tIjAb amplitudes:       0.003 (MW) /      0.022 (MB)
	Size of irrep 2 of tIjAb amplitudes:       0.008 (MW) /      0.068 (MB)
	Size of irrep 3 of tIjAb amplitudes:       0.006 (MW) /      0.052 (MB)
	Size of irrep 4 of tIjAb amplitudes:       0.003 (MW) /      0.022 (MB)
	Size of irrep 5 of tIjAb amplitudes:       0.013 (MW) /      0.107 (MB)
	Size of irrep 6 of tIjAb amplitudes:       0.006 (MW) /      0.052 (MB)
	Size of irrep 7 of tIjAb amplitudes:       0.008 (MW) /      0.068 (MB)
	Total:                                     0.062 (MW) /      0.497 (MB)

	Nuclear Rep. energy          =     59.47841520565293
	SCF energy                   =   -919.00926931983122
	One-electron energy          =    -73.40924988862774
	Two-electron (AA) energy     =      8.24032305398771
	Two-electron (BB) energy     =      6.06072794415607
	Two-electron (AB) energy     =     19.50239823639124
	Two-electron energy          =     33.80344923453501
	Reference energy             =   -919.00926931983156

*** tstop() called on cqc05 at Thu Aug 20 20:00:22 2020
Module time:
	user time   =       1.29 seconds =       0.02 minutes
	system time =       0.68 seconds =       0.01 minutes
	total time  =          3 seconds =       0.05 minutes
Total time:
	user time   =       4.70 seconds =       0.08 minutes
	system time =       0.78 seconds =       0.01 minutes
	total time  =          5 seconds =       0.08 minutes

*** tstart() called on cqc05
*** at Thu Aug 20 20:00:22 2020

            **************************
            *                        *
            *        CCENERGY        *
            *                        *
            **************************

    Nuclear Rep. energy (wfn)     =   59.478415205652929
    SCF energy          (wfn)     = -919.009269319831219
    Reference energy    (file100) = -919.009269319831560

    Input parameters:
    -----------------
    Wave function   =     CCSD
    Reference wfn   =     UHF
    Brueckner       =     No
    Memory (Mbytes) =     250000.0
    Maxiter         =     50
    R_Convergence   =     1.0e-07
    E_Convergence   =     1.0e-06
    Restart         =     Yes
    DIIS            =     Yes
    AO Basis        =     NONE
    ABCD            =     NEW
    Cache Level     =     2
    Cache Type      =     LRU
    Print Level     =     1
    Num. of threads =     4
    # Amps to Print =     10
    Print MP2 Amps? =     No
    Analyze T2 Amps =     No
    Print Pair Ener =     No
    Local CC        =     No
    SCS-MP2         =     False
    SCSN-MP2        =     False
    SCS-CCSD        =     False

MP2 correlation energy -0.4032447269033297
                Solving CC Amplitude Equations
                ------------------------------
  Iter             Energy              RMS        T1Diag      D1Diag    New D1Diag    D2Diag
  ----     ---------------------    ---------   ----------  ----------  ----------   --------
     0        -0.403244726903330    0.000e+00    0.000000    0.000000    0.000000    0.000000
     1        -0.425280019348783    7.433e-02    0.013834    0.000000    0.000000    0.000000
     2        -0.435340462985446    2.413e-02    0.017176    0.000000    0.000000    0.000000
     3        -0.437181200672520    1.285e-02    0.020533    0.000000    0.000000    0.000000
     4        -0.436929517012732    4.292e-03    0.022038    0.000000    0.000000    0.000000
     5        -0.436824125526992    1.642e-03    0.022418    0.000000    0.000000    0.000000
     6        -0.436824631148211    4.725e-04    0.022514    0.000000    0.000000    0.000000
     7        -0.436825693097304    1.641e-04    0.022522    0.000000    0.000000    0.000000
     8        -0.436826997822697    6.260e-05    0.022519    0.000000    0.000000    0.000000
     9        -0.436828143314368    2.095e-05    0.022518    0.000000    0.000000    0.000000
    10        -0.436827839450935    7.692e-06    0.022518    0.000000    0.000000    0.000000
    11        -0.436827854675587    2.804e-06    0.022518    0.000000    0.000000    0.000000
    12        -0.436827822206129    1.058e-06    0.022518    0.000000    0.000000    0.000000
    13        -0.436827827860253    4.169e-07    0.022518    0.000000    0.000000    0.000000
    14        -0.436827837367592    1.663e-07    0.022518    0.000000    0.000000    0.000000
    15        -0.436827838015091    5.502e-08    0.022518    0.000000    0.000000    0.000000
    15        -0.436827838015091    5.502e-08    0.022518    0.000000    0.000000    0.000000

    Iterations converged.

      * MP2 total energy                      = -919.412514046734941
      * CCSD total energy                     = -919.446097157846680
*** Psi4 exiting successfully. Buy a developer a beer!
