                               Psi4 1.2a1.dev939

  ==> Input File <==

--------------------------------------------------------------------------
# Any line starting with the # character is a comment line
memory 250000 mb
molecule molecule{
1 2
C          0.0000000910        0.0000000000        0.6264717001
C         -0.0000000910        0.0000000000       -0.6264716992
H          0.0000003986        0.0000000000       -1.7031368583
H         -0.0000003989        0.0000000000        1.7031368473
}

set {
  reference uhf
  basis aug-cc-pv(6+d)z
  scf_type OUT_OF_CORE
  freeze_core true
}

energy('ccsd')
--------------------------------------------------------------------------

    Molecular point group: cs

    Geometry (in Angstrom), charge = 1, multiplicity = 2:

       Center              X                  Y                   Z               Mass
    ------------   -----------------  -----------------  -----------------  -----------------
           C          0.000000000012     0.000000000000     0.626471700111    12.000000000000
           C          0.000000000012     0.000000000000    -0.626471699189    12.000000000000
           H          0.000000646006     0.000000000000    -1.703136858289     1.007825032070
           H         -0.000000646283     0.000000000000     1.703136847311     1.007825032070

  Charge       = 1
  Multiplicity = 2
  Basis Set: AUG-CC-PV(6+D)Z
    Blend: AUG-CC-PV(6+D)Z

    Orbital Energies (a.u.)
    -----------------------

    Alpha Occupied:

       1Ap   -11.636552     2Ap   -11.633488     3Ap    -1.412025
       4Ap    -1.095952     5Ap    -1.006881     6Ap    -0.803489
       1App   -0.754591

    Alpha Virtual:

       7Ap    -0.170242     2App   -0.143155     8Ap    -0.112043
       9Ap    -0.096541    10Ap    -0.081719     3App   -0.077679
      11Ap    -0.065077    12Ap    -0.039473    13Ap    -0.037015
       4App   -0.036094    14Ap    -0.033536    15Ap    -0.007188
      16Ap     0.001301     5App    0.001657    17Ap     0.012114
      18Ap     0.031967     6App    0.035982    19Ap     0.043857
      20Ap     0.043876     7App    0.048984    21Ap     0.062782
       8App    0.063133    22Ap     0.069645    23Ap     0.077284
      24Ap     0.077664     9App    0.082024    25Ap     0.119552
      26Ap     0.135888    10App    0.140631    27Ap     0.175660
      28Ap     0.187625    29Ap     0.189244    30Ap     0.197807
      11App    0.202549    12App    0.236548    31Ap     0.236567
      32Ap     0.236728    33Ap     0.258056    13App    0.258065
      34Ap     0.261666    14App    0.266428    35Ap     0.268867
      36Ap     0.272900    15App    0.275185    16App    0.305292
      37Ap     0.305697    17App    0.308928    38Ap     0.309089
      39Ap     0.342773    18App    0.347167    40Ap     0.372300
      19App    0.372302    41Ap     0.372816    20App    0.385287
      42Ap     0.386375    43Ap     0.387099    21App    0.387119
      44Ap     0.404059    45Ap     0.424148    46Ap     0.471322
      22App    0.479124    47Ap     0.482174    48Ap     0.482199
      49Ap     0.510380    23App    0.522449    50Ap     0.535921
      51Ap     0.598575    24App    0.603054    52Ap     0.604536
      53Ap     0.606719    25App    0.611737    54Ap     0.672849
      26App    0.681407    27App    0.681789    55Ap     0.681903
      56Ap     0.721763    57Ap     0.780508    28App    0.791587
      58Ap     0.797425    59Ap     0.799018    29App    0.804136
      60Ap     0.822793    61Ap     0.834129    30App    0.834131
      31App    0.859916    62Ap     0.860425    63Ap     0.866706
      64Ap     0.904890    32App    0.950092    65Ap     0.950093
      66Ap     0.954342    67Ap     0.964757    33App    0.967125
      68Ap     0.972194    34App    0.972195    69Ap     0.990276
      35App    0.992219    70Ap     0.994995    71Ap     1.008578
      36App    1.008611    72Ap     1.013398    37App    1.013525
      73Ap     1.093234    38App    1.100570    74Ap     1.143476
      39App    1.143509    40App    1.171138    75Ap     1.171138
      76Ap     1.190451    77Ap     1.240542    78Ap     1.248896
      41App    1.254026    79Ap     1.261401    42App    1.262056
      80Ap     1.262201    43App    1.279083    81Ap     1.307198
      44App    1.318838    82Ap     1.325618    45App    1.326150
      83Ap     1.336360    84Ap     1.340299    85Ap     1.352081
      46App    1.369226    47App    1.380217    86Ap     1.380277
      87Ap     1.496028    48App    1.496069    88Ap     1.513156
      89Ap     1.533474    90Ap     1.543286    49App    1.556949
      91Ap     1.564989    50App    1.574310    92Ap     1.624648
      93Ap     1.673968    51App    1.742217    94Ap     1.742521
      95Ap     1.821549    52App    1.828607    96Ap     1.833672
      97Ap     1.837679    53App    1.838259    54App    1.855873
      98Ap     1.857519    55App    1.925068    99Ap     1.925248
     100Ap     1.969567    56App    1.990410   101Ap     1.990410
      57App    2.096354   102Ap     2.096413   103Ap     2.124477
      58App    2.124845   104Ap     2.133512    59App    2.133514
     105Ap     2.171133   106Ap     2.185662    60App    2.198194
     107Ap     2.198196    61App    2.201813   108Ap     2.209301
      62App    2.209750   109Ap     2.230768    63App    2.230768
     110Ap     2.261343    64App    2.261347   111Ap     2.262649
     112Ap     2.344417    65App    2.354385   113Ap     2.440360
     114Ap     2.452910   115Ap     2.457453    66App    2.457545
      67App    2.458884    68App    2.459715   116Ap     2.494789
     117Ap     2.495448   118Ap     2.550430   119Ap     2.562243
      69App    2.562243   120Ap     2.595255    70App    2.595409
     121Ap     2.622082    71App    2.638242   122Ap     2.638242
     123Ap     2.644751    72App    2.656750   124Ap     2.696854
     125Ap     2.701095    73App    2.709992   126Ap     2.748210
     127Ap     2.794899    74App    2.804045   128Ap     2.812893
      75App    2.813082   129Ap     2.836645    76App    2.855764
     130Ap     2.855940    77App    2.949615   131Ap     2.949615
     132Ap     2.957290    78App    2.957296    79App    2.975199
     133Ap     2.975471    80App    3.007065   134Ap     3.007071
      81App    3.012772   135Ap     3.013065   136Ap     3.089564
     137Ap     3.179055    82App    3.179119   138Ap     3.210986
     139Ap     3.229218    83App    3.229419    84App    3.235630
     140Ap     3.272281    85App    3.289058   141Ap     3.303875
     142Ap     3.315537   143Ap     3.355028    86App    3.357733
     144Ap     3.377272    87App    3.398736   145Ap     3.587864
      88App    3.587874   146Ap     3.592970    89App    3.622891
     147Ap     3.624332   148Ap     3.653789    90App    3.677748
     149Ap     3.716413    91App    3.861921   150Ap     3.861974
     151Ap     3.951382    92App    3.965455   152Ap     4.063976
     153Ap     4.076704    93App    4.090059    94App    4.104874
     154Ap     4.108978   155Ap     4.148709    95App    4.148709
     156Ap     4.161671    96App    4.177473   157Ap     4.193029
      97App    4.193044   158Ap     4.284954    98App    4.284954
     159Ap     4.320577   160Ap     4.396941    99App    4.460946
     161Ap     4.460959   100App    4.526837   162Ap     4.526924
     163Ap     4.540582   164Ap     4.634813   101App    4.655728
     165Ap     4.696715   166Ap     4.763377   102App    4.763379
     167Ap     4.791472   168Ap     4.795790   103App    4.795808
     104App    4.869056   169Ap     4.869056   170Ap     4.871558
     105App    4.878318   106App    4.940167   171Ap     4.940167
     172Ap     4.979184   107App    4.979303   173Ap     4.988130
     108App    4.988134   109App    5.023932   174Ap     5.023932
     175Ap     5.034869   176Ap     5.039424   110App    5.049861
     111App    5.064146   177Ap     5.064156   178Ap     5.098124
     112App    5.104178   179Ap     5.156686   180Ap     5.177812
     113App    5.177814   181Ap     5.224710   114App    5.224710
     115App    5.234818   182Ap     5.234963   116App    5.248385
     183Ap     5.248385   184Ap     5.334351   117App    5.340502
     185Ap     5.445947   186Ap     5.463440   187Ap     5.530828
     188Ap     5.550300   118App    5.557552   189Ap     5.624214
     119App    5.624379   190Ap     5.624461   120App    5.644373
     121App    5.737617   191Ap     5.737617   192Ap     5.785881
     193Ap     5.789826   122App    5.789826   194Ap     5.904566
     123App    5.904566   195Ap     5.945162   124App    5.945282
     196Ap     5.957198   125App    5.970850   197Ap     5.970878
     198Ap     5.974737   126App    5.974737   127App    6.011522
     199Ap     6.011522   200Ap     6.074891   128App    6.100162
     201Ap     6.239862   202Ap     6.307891   129App    6.307896
     203Ap     6.310472   130App    6.310472   204Ap     6.342561
     131App    6.342887   205Ap     6.382127   132App    6.382130
     206Ap     6.414345   133App    6.433175   207Ap     6.592146
     208Ap     6.592872   209Ap     6.593182   134App    6.593210
     210Ap     6.595740   135App    6.612434   211Ap     6.654676
     136App    6.654776   212Ap     6.766298   137App    6.792679
     213Ap     6.934307   138App    6.958104   214Ap     6.976358
     139App    6.977023   140App    7.043168   215Ap     7.043382
     216Ap     7.083386   141App    7.083389   142App    7.103862
     217Ap     7.103867   218Ap     7.230383   143App    7.230395
     219Ap     7.257030   220Ap     7.344322   221Ap     7.360931
     144App    7.386181   145App    7.409027   222Ap     7.409027
     223Ap     7.630909   146App    7.630917   224Ap     7.718575
     147App    7.742583   225Ap     7.789122   148App    7.791734
     226Ap     7.794150   149App    8.009771   227Ap     8.009978
     228Ap     8.117276   150App    8.181382   229Ap     8.181382
     230Ap     8.277860   151App    8.297836   231Ap     8.357524
     232Ap     8.517521   233Ap     8.518522   152App    8.518527
     153App    8.601184   234Ap     8.603196   235Ap     8.858959
     236Ap     8.868948   154App    8.868949   237Ap     8.906917
     155App    8.924629   238Ap     8.941150   156App    8.941534
     239Ap     9.005100   157App    9.031525   240Ap     9.070655
     158App    9.408085   241Ap     9.408282   242Ap     9.551640
     159App    9.576385   243Ap     9.585094   244Ap     9.589063
     160App    9.589073   245Ap     9.731385   246Ap     9.842231
     161App    9.857018   247Ap     9.972877   248Ap     9.987085
     162App    9.995119   163App   10.053687   249Ap    10.053963
     250Ap    10.174338   164App   10.174339   251Ap    10.180275
     165App   10.180275   166App   10.210755   252Ap    10.210787
     253Ap    10.327931   167App   10.352635   254Ap    10.428255
     168App   10.428259   255Ap    10.436864   169App   10.436871
     256Ap    10.632581   170App   10.648093   257Ap    10.648126
     258Ap    10.674589   171App   10.674789   259Ap    10.690233
     172App   11.014829   260Ap    11.015183   261Ap    11.091123
     173App   11.091368   262Ap    11.159585   263Ap    11.323709
     264Ap    11.462218   174App   11.480972   265Ap    11.509488
     175App   11.521597   266Ap    11.716517   176App   11.892564
     267Ap    11.892849   268Ap    11.931056   177App   11.950332
     269Ap    11.989530   178App   11.989530   179App   12.082685
     270Ap    12.082685   271Ap    12.117628   180App   12.135870
     272Ap    12.135870   181App   12.279238   273Ap    12.279238
     274Ap    12.591277   182App   12.591284   275Ap    12.609553
     276Ap    12.861135   183App   12.861135   184App   12.919586
     277Ap    12.919660   278Ap    12.922973   185App   12.938443
     279Ap    13.300433   186App   13.300594   280Ap    13.319665
     187App   13.350838   188App   13.543879   281Ap    13.543879
     282Ap    13.545177   189App   13.545179   283Ap    13.918746
     190App   13.934909   284Ap    14.028447   285Ap    14.037436
     286Ap    14.154386   191App   14.154386   287Ap    14.236160
     192App   14.236162   193App   14.278632   288Ap    14.278632
     289Ap    14.297155   194App   14.297155   290Ap    14.420533
     195App   14.420723   291Ap    14.463354   196App   14.463359
     292Ap    14.537473   293Ap    14.652363   197App   14.652474
     294Ap    14.692103   295Ap    14.702764   198App   14.714514
     296Ap    14.855978   199App   14.856035   297Ap    14.880431
     200App   14.896608   201App   14.937316   298Ap    14.937316
     299Ap    15.191997   202App   15.212897   300Ap    15.625702
     203App   15.650487   301Ap    15.694359   302Ap    15.791072
     303Ap    16.063745   204App   16.064475   304Ap    16.072701
     205App   16.088115   305Ap    16.248566   206App   16.273051
     306Ap    16.313401   307Ap    16.340783   207App   16.341210
     308Ap    16.471331   208App   16.471331   309Ap    16.553995
     209App   16.553997   210App   16.659022   310Ap    16.659022
     311Ap    16.889506   312Ap    16.983155   211App   16.983155
     212App   17.229197   313Ap    17.229197   314Ap    17.238260
     213App   17.238260   315Ap    17.320997   214App   17.321154
     316Ap    17.436712   317Ap    17.602831   215App   17.602839
     318Ap    17.651531   216App   17.659765   319Ap    17.659765
     217App   17.840727   320Ap    17.840727   321Ap    17.923890
     218App   17.952421   322Ap    18.108103   219App   18.128055
     323Ap    18.133797   220App   18.133997   324Ap    18.840967
     325Ap    19.027719   221App   19.051905   326Ap    19.095634
     327Ap    19.127087   222App   19.127092   328Ap    19.217039
     223App   19.237554   329Ap    19.860234   224App   19.860317
     330Ap    19.873630   225App   19.968332   331Ap    19.968486
     332Ap    20.108617   333Ap    20.221307   226App   20.221308
     227App   20.291675   334Ap    20.291675   228App   20.571809
     335Ap    20.571809   336Ap    20.879623   337Ap    20.918553
     229App   20.924836   230App   21.034047   338Ap    21.034267
     339Ap    21.036565   231App   21.057855   340Ap    21.166507
     232App   21.170245   233App   21.743831   341Ap    21.743842
     234App   21.883200   342Ap    21.883226   343Ap    21.926020
     235App   21.926020   344Ap    21.932554   236App   21.932554
     237App   21.970959   345Ap    21.970961   346Ap    22.259109
     347Ap    22.366010   238App   22.691821   348Ap    22.691869
     349Ap    22.785936   350Ap    22.867966   239App   22.875432
     351Ap    23.109007   240App   23.114517   241App   23.730574
     352Ap    23.730581   353Ap    23.864248   354Ap    23.871948
     242App   23.877838   355Ap    24.140457   243App   24.140457
     356Ap    24.177813   244App   24.177813   357Ap    24.442485
     358Ap    24.664533   245App   24.877050   359Ap    24.877082
     360Ap    25.351369   246App   25.363273   361Ap    25.783926
     247App   25.784102   362Ap    25.831153   363Ap    26.305323
     364Ap    26.508813   248App   26.516518   249App   26.811868
     365Ap    26.811927   366Ap    27.824696   367Ap    27.898697
     250App   27.910368   368Ap    28.281922   369Ap    28.615914
     251App   28.626265   370Ap    29.715842   371Ap    30.048341
     252App   30.059188   372Ap    30.365232   373Ap    36.582765
     253App   36.585197   374Ap    37.195232   254App   37.197714
     375Ap    38.812661   376Ap    40.053323   377Ap    62.446521
     378Ap    65.108018

    Beta Occupied:

       1Ap   -11.626049     2Ap   -11.623512     3Ap    -1.325512
       4Ap    -1.073845     5Ap    -1.000515     1App   -0.735581

    Beta Virtual:

       6Ap    -0.307777     2App   -0.134285     7Ap    -0.110238
       8Ap    -0.093968     9Ap    -0.087656     3App   -0.077304
      10Ap    -0.073748    11Ap    -0.062681     4App   -0.034911
      12Ap    -0.034483    13Ap    -0.032427    14Ap    -0.023468
      15Ap    -0.003946    16Ap     0.005558     5App    0.005561
      17Ap     0.015021     6App    0.036240    18Ap     0.037855
      19Ap     0.046224     7App    0.049662    20Ap     0.055346
       8App    0.063436    21Ap     0.063485    22Ap     0.076012
      23Ap     0.079632     9App    0.083528    24Ap     0.092125
      25Ap     0.120054    10App    0.141748    26Ap     0.148252
      27Ap     0.180027    28Ap     0.188784    29Ap     0.189647
      30Ap     0.200474    11App    0.202783    31Ap     0.243131
      12App    0.245816    32Ap     0.245920    33Ap     0.259902
      13App    0.259905    14App    0.266423    34Ap     0.268283
      35Ap     0.271827    36Ap     0.274204    15App    0.275259
      16App    0.311379    37Ap     0.311383    17App    0.314643
      38Ap     0.314737    18App    0.347977    39Ap     0.351935
      40Ap     0.372819    19App    0.372819    41Ap     0.387148
      20App    0.387165    21App    0.387310    42Ap     0.387708
      43Ap     0.396335    44Ap     0.405314    45Ap     0.426328
      46Ap     0.479827    22App    0.479965    47Ap     0.484525
      48Ap     0.484671    23App    0.525032    49Ap     0.532760
      50Ap     0.542007    51Ap     0.605381    52Ap     0.608225
      24App    0.611252    53Ap     0.611457    25App    0.611639
      54Ap     0.680679    26App    0.682072    55Ap     0.688945
      27App    0.689019    56Ap     0.721909    28App    0.793015
      57Ap     0.793543    58Ap     0.801370    29App    0.804011
      59Ap     0.804071    60Ap     0.826274    61Ap     0.834558
      30App    0.834558    31App    0.865476    62Ap     0.865520
      63Ap     0.874911    64Ap     0.906477    32App    0.953188
      65Ap     0.953188    66Ap     0.966937    33App    0.969442
      67Ap     0.972335    34App    0.972335    68Ap     0.972468
      69Ap     0.991575    35App    0.992786    70Ap     0.997666
      36App    1.020103    71Ap     1.020104    37App    1.031142
      72Ap     1.031345    73Ap     1.097851    38App    1.101056
      74Ap     1.147729    39App    1.147731    40App    1.172687
      75Ap     1.172687    76Ap     1.196051    77Ap     1.242074
      78Ap     1.251101    41App    1.254132    79Ap     1.274304
      42App    1.274396    80Ap     1.279756    43App    1.281616
      81Ap     1.318859    44App    1.320370    82Ap     1.336345
      83Ap     1.336691    45App    1.336845    84Ap     1.343076
      85Ap     1.369499    46App    1.371679    47App    1.382133
      86Ap     1.382156    48App    1.498082    87Ap     1.498085
      88Ap     1.519217    89Ap     1.537661    90Ap     1.556366
      49App    1.557867    91Ap     1.574084    50App    1.574664
      92Ap     1.627587    93Ap     1.677967    94Ap     1.744986
      51App    1.745011    95Ap     1.828354    52App    1.832350
      96Ap     1.836322    53App    1.838719    97Ap     1.855190
      54App    1.858173    98Ap     1.858764    55App    1.934022
      99Ap     1.934065   100Ap     1.970113   101Ap     1.991200
      56App    1.991200   102Ap     2.103602    57App    2.103672
     103Ap     2.130506    58App    2.130813   104Ap     2.133895
      59App    2.133898   105Ap     2.171082   106Ap     2.198407
      60App    2.198478   107Ap     2.199307    61App    2.203888
     108Ap     2.212901    62App    2.212957   109Ap     2.234926
      63App    2.234926   110Ap     2.262734    64App    2.262734
     111Ap     2.269028   112Ap     2.346559    65App    2.354396
     113Ap     2.453947   114Ap     2.454450    66App    2.458729
     115Ap     2.460471    67App    2.460537    68App    2.462094
     116Ap     2.497952   117Ap     2.502480   118Ap     2.555514
     119Ap     2.564937    69App    2.564937   120Ap     2.614863
      70App    2.614905   121Ap     2.627455    71App    2.647419
     122Ap     2.647419   123Ap     2.651304    72App    2.656988
     124Ap     2.703217   125Ap     2.707379    73App    2.711789
     126Ap     2.749890   127Ap     2.799846    74App    2.804990
     128Ap     2.819238    75App    2.819270   129Ap     2.839230
      76App    2.862251   130Ap     2.862299   131Ap     2.954566
      77App    2.954567   132Ap     2.960949    78App    2.960950
      79App    2.983285   133Ap     2.983340    80App    3.011560
     134Ap     3.011561    81App    3.033662   135Ap     3.033734
     136Ap     3.092078   137Ap     3.185443    82App    3.185461
     138Ap     3.230449   139Ap     3.233413    83App    3.233582
      84App    3.238191   140Ap     3.281713    85App    3.290059
     141Ap     3.304599   142Ap     3.315793   143Ap     3.364220
      86App    3.365069   144Ap     3.387609    87App    3.400251
     145Ap     3.592641    88App    3.592643   146Ap     3.598488
      89App    3.631783   147Ap     3.632248   148Ap     3.673767
      90App    3.680500   149Ap     3.726431    91App    3.869747
     150Ap     3.869765   151Ap     3.957136    92App    3.966184
     152Ap     4.080317   153Ap     4.086946    93App    4.093474
      94App    4.113026   154Ap     4.114396   155Ap     4.149763
      95App    4.149763   156Ap     4.164795    96App    4.177815
     157Ap     4.197404    97App    4.197406   158Ap     4.285475
      98App    4.285475   159Ap     4.325643   160Ap     4.400700
     161Ap     4.461931    99App    4.461944   100App    4.528491
     162Ap     4.528499   163Ap     4.542751   164Ap     4.645156
     101App    4.657368   165Ap     4.699785   166Ap     4.763474
     102App    4.763475   167Ap     4.792101   168Ap     4.799092
     103App    4.799098   169Ap     4.872779   104App    4.874236
     170Ap     4.874236   105App    4.877956   106App    4.940704
     171Ap     4.940704   172Ap     4.989027   107App    4.989029
     173Ap     4.989558   108App    4.989633   174Ap     5.024555
     109App    5.024555   175Ap     5.036359   176Ap     5.041660
     110App    5.049892   111App    5.064112   177Ap     5.064118
     178Ap     5.099272   112App    5.103931   179Ap     5.160503
     180Ap     5.180422   113App    5.180423   181Ap     5.231119
     114App    5.231119   115App    5.239498   182Ap     5.239527
     116App    5.252558   183Ap     5.252558   184Ap     5.334870
     117App    5.340515   185Ap     5.448624   186Ap     5.464830
     187Ap     5.545967   188Ap     5.552796   118App    5.560904
     119App    5.627619   189Ap     5.627628   190Ap     5.635830
     120App    5.646247   191Ap     5.747721   121App    5.747721
     192Ap     5.791966   193Ap     5.796881   122App    5.796881
     123App    5.908402   194Ap     5.908402   195Ap     5.959420
     196Ap     5.961451   124App    5.961484   125App    5.973518
     197Ap     5.973520   198Ap     5.980012   126App    5.980012
     199Ap     6.013798   127App    6.013798   200Ap     6.088840
     128App    6.102414   201Ap     6.242623   202Ap     6.311737
     129App    6.311740   203Ap     6.316100   130App    6.316100
     204Ap     6.351247   131App    6.351366   205Ap     6.387802
     132App    6.387805   206Ap     6.422016   133App    6.434185
     207Ap     6.595351   208Ap     6.599045   134App    6.599059
     209Ap     6.599428   210Ap     6.601095   135App    6.613015
     211Ap     6.667441   136App    6.667489   212Ap     6.778081
     137App    6.794188   213Ap     6.945666   138App    6.960304
     214Ap     6.987264   139App    6.987534   140App    7.048997
     215Ap     7.049074   216Ap     7.094121   141App    7.094122
     142App    7.110330   217Ap     7.110331   218Ap     7.239109
     143App    7.239193   219Ap     7.262574   220Ap     7.346352
     221Ap     7.371261   144App    7.388026   145App    7.419007
     222Ap     7.419007   223Ap     7.641820   146App    7.641824
     224Ap     7.729115   147App    7.745069   225Ap     7.794531
     148App    7.796848   226Ap     7.799319   149App    8.020826
     227Ap     8.020886   228Ap     8.121258   229Ap     8.182798
     150App    8.182798   230Ap     8.283107   151App    8.298639
     231Ap     8.360140   232Ap     8.525247   233Ap     8.525399
     152App    8.525401   153App    8.613164   234Ap     8.613803
     235Ap     8.863750   236Ap     8.870736   154App    8.870736
     237Ap     8.911010   155App    8.925190   238Ap     8.943652
     156App    8.943952   239Ap     9.016360   157App    9.033404
     240Ap     9.072858   158App    9.412537   241Ap     9.412610
     242Ap     9.563409   159App    9.578620   243Ap     9.591593
     244Ap     9.595130   160App    9.595135   245Ap     9.731391
     246Ap     9.846600   161App    9.857477   247Ap     9.974462
     248Ap     9.988474   162App    9.995164   163App   10.055898
     249Ap    10.056057   250Ap    10.174319   164App   10.174319
     251Ap    10.179833   165App   10.179833   166App   10.212079
     252Ap    10.212090   253Ap    10.336537   167App   10.354580
     254Ap    10.431250   168App   10.431252   255Ap    10.437720
     169App   10.437724   256Ap    10.635760   170App   10.648648
     257Ap    10.650624   258Ap    10.674920   171App   10.675030
     259Ap    10.690779   172App   11.023322   260Ap    11.023476
     261Ap    11.093434   173App   11.093597   262Ap    11.162052
     263Ap    11.325741   264Ap    11.467578   174App   11.481716
     265Ap    11.511335   175App   11.521253   266Ap    11.717758
     176App   11.896435   267Ap    11.896617   268Ap    11.937187
     177App   11.951238   269Ap    11.996746   178App   11.996746
     179App   12.089989   270Ap    12.089989   271Ap    12.119192
     180App   12.143002   272Ap    12.143003   273Ap    12.286383
     181App   12.286383   274Ap    12.598912   182App   12.598915
     275Ap    12.612090   276Ap    12.867697   183App   12.867697
     184App   12.920568   277Ap    12.920626   278Ap    12.926623
     185App   12.938782   279Ap    13.307167   186App   13.307243
     280Ap    13.329480   187App   13.352029   281Ap    13.548696
     188App   13.548697   189App   13.548732   282Ap    13.548732
     283Ap    13.922340   190App   13.935313   284Ap    14.032653
     285Ap    14.041178   286Ap    14.163787   191App   14.163787
     287Ap    14.242601   192App   14.242602   193App   14.286644
     288Ap    14.286644   289Ap    14.306454   194App   14.306454
     290Ap    14.423936   195App   14.424074   291Ap    14.474065
     196App   14.474067   292Ap    14.540101   293Ap    14.655898
     197App   14.655953   294Ap    14.698009   295Ap    14.706049
     198App   14.714374   296Ap    14.866701   199App   14.866732
     297Ap    14.883827   200App   14.897144   201App   14.945723
     298Ap    14.945723   299Ap    15.201916   202App   15.214897
     300Ap    15.637724   203App   15.653013   301Ap    15.697670
     302Ap    15.794299   303Ap    16.071215   204App   16.071596
     304Ap    16.077603   205App   16.088904   305Ap    16.256507
     206App   16.274796   306Ap    16.318332   307Ap    16.348487
     207App   16.348719   308Ap    16.481579   208App   16.481579
     309Ap    16.561387   209App   16.561388   310Ap    16.669370
     210App   16.669370   311Ap    16.893933   312Ap    16.991463

  @UHF Final Energy:   -76.49533124492035

   => Energetics <=

    Nuclear Repulsion Energy =             23.9836477023460368
    One-Electron Energy =                -145.2299667193934170
    Two-Electron Energy =                  44.7509877721270328
    Total Energy =                        -76.4953312449203509
      * MP2 total energy                      =  -76.769881500086754
      * CCSD total energy                     =  -76.786473534746477
*** Psi4 exiting successfully. Buy a developer a beer!
