                               Psi4 1.2a1.dev938

  ==> Input File <==

--------------------------------------------------------------------------
# Any line starting with the # character is a comment line
memory 250000 mb
molecule molecule{
1 2
C          0.0000000910        0.0000000000        0.6264717001
C         -0.0000000910        0.0000000000       -0.6264716992
H          0.0000003986        0.0000000000       -1.7031368583
H         -0.0000003989        0.0000000000        1.7031368473
}

set {
  reference uhf
  basis aug-cc-pv(d+d)z
  scf_type OUT_OF_CORE
  freeze_core true
}

energy('ccsd')
--------------------------------------------------------------------------

    Molecular point group: cs

    Geometry (in Angstrom), charge = 1, multiplicity = 2:

       Center              X                  Y                   Z               Mass
    ------------   -----------------  -----------------  -----------------  -----------------
           C          0.000000000012     0.000000000000     0.626471700111    12.000000000000
           C          0.000000000012     0.000000000000    -0.626471699189    12.000000000000
           H          0.000000646006     0.000000000000    -1.703136858289     1.007825032070
           H         -0.000000646283     0.000000000000     1.703136847311     1.007825032070

  Charge       = 1
  Multiplicity = 2
  Basis Set: AUG-CC-PV(D+D)Z
    Blend: AUG-CC-PV(D+D)Z

    Orbital Energies (a.u.)
    -----------------------

    Alpha Occupied:

       1Ap   -11.646701     2Ap   -11.643715     3Ap    -1.416994
       4Ap    -1.097382     5Ap    -1.007260     1App   -0.802734
       6Ap    -0.755105

    Alpha Virtual:

       2App   -0.170898     7Ap    -0.143468     8Ap    -0.110508
       9Ap    -0.095750     3App   -0.063753    10Ap    -0.056310
      11Ap    -0.052836    12Ap    -0.015565     4App   -0.002572
      13Ap     0.005338    14Ap     0.013847    15Ap     0.042936
      16Ap     0.128705    17Ap     0.141594     5App    0.154400
      18Ap     0.155560     6App    0.172203    19Ap     0.178706
       7App    0.272940    20Ap     0.279359    21Ap     0.292437
      22Ap     0.304975     8App    0.343679    23Ap     0.344619
      24Ap     0.366662    25Ap     0.464667     9App    0.481109
      26Ap     0.504683    10App    0.543913    27Ap     0.564561
      11App    0.570868    28Ap     0.587558    29Ap     0.595909
      30Ap     0.720441    31Ap     0.880343    12App    0.890643
      32Ap     0.909631    33Ap     1.078764    34Ap     1.214781
      13App    1.214789    14App    1.307703    35Ap     1.331871
      36Ap     1.347617    37Ap     1.386424    15App    1.533591
      38Ap     1.534120    16App    1.616966    39Ap     1.631704
      17App    1.806133    40Ap     1.822652    41Ap     2.127218
      42Ap     2.214829    43Ap     2.317270    18App    2.403610
      44Ap     2.426844    45Ap     3.366506    46Ap     3.623216

    Beta Occupied:

       1Ap   -11.635306     2Ap   -11.632858     3Ap    -1.329775
       4Ap    -1.074943     5Ap    -1.000160     6Ap    -0.734553

    Beta Virtual:

       1App   -0.310986     7Ap    -0.134244     8Ap    -0.108469
       9Ap    -0.092963     2App   -0.087231    10Ap    -0.055356
      11Ap    -0.048264     3App   -0.047741    12Ap    -0.009316
      13Ap     0.008203    14Ap     0.016201     4App    0.029269
      15Ap     0.048405    16Ap     0.135136    17Ap     0.147385
       5App    0.176265    18Ap     0.176898    19Ap     0.178561
       6App    0.180120    20Ap     0.280707     7App    0.287783
      21Ap     0.300570    22Ap     0.312766    23Ap     0.349999
       8App    0.350037    24Ap     0.368476    25Ap     0.468225
      26Ap     0.509911     9App    0.534870    27Ap     0.568941
      10App    0.570627    28Ap     0.592136    29Ap     0.603490
      11App    0.609343    30Ap     0.725277    31Ap     0.893839
      12App    0.905456    32Ap     0.911602    33Ap     1.090898
      13App    1.260897    34Ap     1.261540    35Ap     1.335559
      14App    1.341023    36Ap     1.346537    37Ap     1.395638
      38Ap     1.566115    15App    1.566125    39Ap     1.631988
      16App    1.633810    17App    1.823084    40Ap     1.823659
      41Ap     2.135689    42Ap     2.223551    43Ap     2.324139
      18App    2.422944    44Ap     2.430092    45Ap     3.375950
      46Ap     3.628775

    Final Occupation by Irrep:
             Ap   App
    DOCC [     6,    0 ]
    SOCC [     0,    1 ]

  Energy converged.

  @UHF Final Energy:   -76.46903887180258

   => Energetics <=

    Nuclear Repulsion Energy =             23.9836477023460368
    One-Electron Energy =                -145.1278881959319165
    Two-Electron Energy =                  44.6752016217833088
    Total Energy =                        -76.4690388718025815

  UHF NO Occupations:
  HONO-2 :    5 Ap 1.9991086
  HONO-1 :    6 Ap 1.9988544
  HONO-0 :    1App 1.0000000
  LUNO+0 :    7 Ap 0.0011456
  LUNO+1 :    8 Ap 0.0008914
  LUNO+2 :    9 Ap 0.0001636
  LUNO+3 :   10 Ap 0.0000369

Properties will be evaluated at   0.000000,   0.000000,   0.000000 Bohr

Properties computed using the SCF density matrix

  Nuclear Dipole Moment: (a.u.)
     X:    -0.0000      Y:     0.0000      Z:    -0.0000

  Electronic Dipole Moment: (a.u.)
     X:     0.0000      Y:     0.0000      Z:     0.0000

  Dipole Moment: (a.u.)
     X:    -0.0000      Y:     0.0000      Z:    -0.0000     Total:     0.0000

  Dipole Moment: (Debye)
     X:    -0.0000      Y:     0.0000      Z:    -0.0000     Total:     0.0000

*** tstop() called on cqc05 at Thu Aug 20 19:56:42 2020
Module time:
	user time   =       1.22 seconds =       0.02 minutes
	system time =       0.06 seconds =       0.00 minutes
	total time  =          1 seconds =       0.02 minutes
Total time:
	user time   =       1.22 seconds =       0.02 minutes
	system time =       0.06 seconds =       0.00 minutes
	total time  =          1 seconds =       0.02 minutes

*** tstart() called on cqc05
*** at Thu Aug 20 19:56:42 2020

	Wfn Parameters:
	--------------------
	Wavefunction         = CCSD
	Number of irreps     = 2
	Number of MOs        = 64
	Number of active MOs = 62
	AO-Basis             = NONE
	Semicanonical        = false
	Reference            = UHF
	Print Level          = 1

	IRREP	# MOs	# FZDC	# DOCC	# SOCC	# VIRT	# FZVR
	-----	-----	------	------	------	------	------
	 Ap	   46	    2	    4	    0	    40	    0
	 App	   18	    0	    0	    1	    17	    0
	Transforming integrals...
	IWL integrals will be deleted.
	(OO|OO)...
	Presorting SO-basis two-electron integrals.
	Sorting File: SO Ints (nn|nn) nbuckets = 1
	Transforming the one-electron integrals and constructing Fock matrices
	Starting AA/AB first half-transformation.
	Sorting AA/AB half-transformed integrals.
	Starting BB first half-transformation.
	Sorting BB half-transformed integrals.
	First half integral transformation complete.
	Starting AA second half-transformation.
	Starting AB second half-transformation.
	Starting BB second half-transformation.
	Two-electron integral transformation complete.
	(OO|OV)...
	Starting AA second half-transformation.
	Starting AB second half-transformation.
	Starting BB second half-transformation.
	Two-electron integral transformation complete.
	(OO|VV)...
	Starting AA second half-transformation.
	Starting AB second half-transformation.
	Starting BB second half-transformation.
	Two-electron integral transformation complete.
	(OV|OO)...
	Starting AA/AB first half-transformation.
	Sorting AA/AB half-transformed integrals.
	Starting BB first half-transformation.
	Sorting BB half-transformed integrals.
	First half integral transformation complete.
	Starting AA second half-transformation.
	Starting AB second half-transformation.
	Starting BB second half-transformation.
	Two-electron integral transformation complete.
	(OV|OV)...
	Starting AA second half-transformation.
	Starting AB second half-transformation.
	Starting BB second half-transformation.
	Two-electron integral transformation complete.
	(OV|VV)...
	Starting AA second half-transformation.
	Starting AB second half-transformation.
	Starting BB second half-transformation.
	Two-electron integral transformation complete.
	(VV|OO)...
	Starting AA/AB first half-transformation.
	Sorting AA/AB half-transformed integrals.
	Starting BB first half-transformation.
	Sorting BB half-transformed integrals.
	First half integral transformation complete.
	Starting AA second half-transformation.
	Starting AB second half-transformation.
	Starting BB second half-transformation.
	Two-electron integral transformation complete.
	(VV|OV)...
	Starting AA second half-transformation.
	Starting AB second half-transformation.
	Starting BB second half-transformation.
	Two-electron integral transformation complete.
	(VV|VV)...
	Starting AA second half-transformation.
	Starting AB second half-transformation.
	Starting BB second half-transformation.
	Two-electron integral transformation complete.
	Frozen core energy     =    -76.03910320218446

	Size of irrep 0 of <AB|CD> integrals:      0.839 (MW) /      6.712 (MB)
	Size of irrep 1 of <AB|CD> integrals:      0.462 (MW) /      3.699 (MB)
	Total:                                     1.301 (MW) /     10.412 (MB)

	Size of irrep 0 of <ab|cd> integrals:      0.870 (MW) /      6.964 (MB)
	Size of irrep 1 of <ab|cd> integrals:      0.518 (MW) /      4.147 (MB)
	Total:                                     1.389 (MW) /     11.111 (MB)

	Size of irrep 0 of <Ab|Cd> integrals:      3.633 (MW) /     29.063 (MB)
	Size of irrep 1 of <Ab|Cd> integrals:      1.960 (MW) /     15.680 (MB)
	Total:                                     5.593 (MW) /     44.743 (MB)

	Size of irrep 0 of <IA|BC> integrals:      0.334 (MW) /      2.675 (MB)
	Size of irrep 1 of <IA|BC> integrals:      0.147 (MW) /      1.175 (MB)
	Total:                                     0.481 (MW) /      3.850 (MB)

	Size of irrep 0 of <ia|bc> integrals:      0.308 (MW) /      2.463 (MB)
	Size of irrep 1 of <ia|bc> integrals:      0.104 (MW) /      0.829 (MB)
	Total:                                     0.412 (MW) /      3.292 (MB)

	Size of irrep 0 of <Ia|Bc> integrals:      0.339 (MW) /      2.714 (MB)
	Size of irrep 1 of <Ia|Bc> integrals:      0.157 (MW) /      1.254 (MB)
	Total:                                     0.496 (MW) /      3.969 (MB)

	Size of irrep 0 of <iA|bC> integrals:      0.305 (MW) /      2.440 (MB)
	Size of irrep 1 of <iA|bC> integrals:      0.095 (MW) /      0.762 (MB)
	Total:                                     0.400 (MW) /      3.201 (MB)

	Size of irrep 0 of tIjAb amplitudes:       0.030 (MW) /      0.244 (MB)
	Size of irrep 1 of tIjAb amplitudes:       0.006 (MW) /      0.045 (MB)
	Total:                                     0.036 (MW) /      0.289 (MB)

	Nuclear Rep. energy          =     23.98364770234604
	SCF energy                   =    -76.46903887180258
	One-electron energy          =    -39.60826066160145
	Two-electron (AA) energy     =      3.85079969914461
	Two-electron (BB) energy     =      2.18081645516171
	Two-electron (AB) energy     =      9.16306113533100
	Two-electron energy          =     15.19467728963732
	Reference energy             =    -76.46903887180255

*** tstop() called on cqc05 at Thu Aug 20 19:56:43 2020
Module time:
	user time   =       0.61 seconds =       0.01 minutes
	system time =       0.33 seconds =       0.01 minutes
	total time  =          1 seconds =       0.02 minutes
Total time:
	user time   =       1.84 seconds =       0.03 minutes
	system time =       0.39 seconds =       0.01 minutes
	total time  =          2 seconds =       0.03 minutes

*** tstart() called on cqc05
*** at Thu Aug 20 19:56:43 2020

            **************************
            *                        *
            *        CCENERGY        *
            *                        *
            **************************

    Nuclear Rep. energy (wfn)     =   23.983647702346037
    SCF energy          (wfn)     =  -76.469038871802582
    Reference energy    (file100) =  -76.469038871802553

    Input parameters:
    -----------------
    Wave function   =     CCSD
    Reference wfn   =     UHF
    Brueckner       =     No
    Memory (Mbytes) =     250000.0
    Maxiter         =     50
    R_Convergence   =     1.0e-07
    E_Convergence   =     1.0e-06
    Restart         =     Yes
    DIIS            =     Yes
    AO Basis        =     NONE
    ABCD            =     NEW
    Cache Level     =     2
    Cache Type      =     LRU
    Print Level     =     1
    Num. of threads =     4
    # Amps to Print =     10
    Print MP2 Amps? =     No
    Analyze T2 Amps =     No
    Print Pair Ener =     No
    Local CC        =     No
    SCS-MP2         =     False
    SCSN-MP2        =     False
    SCS-CCSD        =     False

MP2 correlation energy -0.2074924711900229
                Solving CC Amplitude Equations
                ------------------------------
  Iter             Energy              RMS        T1Diag      D1Diag    New D1Diag    D2Diag
  ----     ---------------------    ---------   ----------  ----------  ----------   --------
     0        -0.207492471190023    0.000e+00    0.000000    0.000000    0.000000    0.000000
     1        -0.224902086106425    5.609e-02    0.010921    0.000000    0.000000    0.000000
     2        -0.233104713313263    2.042e-02    0.014127    0.000000    0.000000    0.000000
     3        -0.233998654313373    6.495e-03    0.015364    0.000000    0.000000    0.000000
     4        -0.234062216171217    2.221e-03    0.015494    0.000000    0.000000    0.000000
     5        -0.234070587713838    5.131e-04    0.015479    0.000000    0.000000    0.000000
     6        -0.234073845886304    1.291e-04    0.015468    0.000000    0.000000    0.000000
     7        -0.234075165401416    3.819e-05    0.015465    0.000000    0.000000    0.000000
     8        -0.234075084613531    1.148e-05    0.015465    0.000000    0.000000    0.000000
     9        -0.234074970322787    3.739e-06    0.015465    0.000000    0.000000    0.000000
    10        -0.234074990565221    1.317e-06    0.015465    0.000000    0.000000    0.000000
    11        -0.234074998926174    3.976e-07    0.015465    0.000000    0.000000    0.000000
    12        -0.234075009771291    1.180e-07    0.015465    0.000000    0.000000    0.000000
    13        -0.234075010659044    3.593e-08    0.015465    0.000000    0.000000    0.000000
    13        -0.234075010659044    3.593e-08    0.015465    0.000000    0.000000    0.000000

    Iterations converged.

    CCSD corr. energy   =   -0.234075010659044
    PPL corr. energy    =    0.062368410834138
    OS PPL corr. energy =    0.053147924491381
    SS PPL corr. energy =    0.009220486342757
    Largest TIA Amplitudes:
              3  20         0.0162898042
              4  48         0.0126525508
              3  19         0.0116088895
              4  47         0.0086859821
              3   3         0.0083154802
              3  28         0.0080128312
              4  52         0.0077287886
              3  33         0.0062624978
              4  55         0.0054932264
              4  44        -0.0053282732

    Largest Tia Amplitudes:
              3  20         0.0182719196
              3  19         0.0122370916
              3   3         0.0099564834
              3  28         0.0090509102
              3  33         0.0073987730
              0  11        -0.0060303787
              1  14        -0.0058679138
              1   8        -0.0053812314
              3  12        -0.0043817465
              1  24         0.0041677711

    Largest TIJAB Amplitudes:
      4   3  40   0        -0.0697679669
      4   3  40   6        -0.0293464383
      4   3  42   0        -0.0243777646
      4   2  40  14         0.0204377023
      4   3  40  21        -0.0200303191
      4   2  40  24        -0.0188748639
      4   3  49   0        -0.0182860355
      3   2  14   0        -0.0178737725
      4   2  40   8         0.0168004724
      4   3  40  13        -0.0163775869

    Largest Tijab Amplitudes:
      3   2  14   0        -0.0168731741
      3   2   8   0        -0.0146653388
      3   2  24   0         0.0141194368
      3   0  44  40         0.0124907441
      3   2  19   9         0.0113992860
      3   0  52  40         0.0109724490
      1   0  41  40        -0.0101736637
      3   1  15   0         0.0096454333
      3   1  11   0        -0.0087862138
      3   2  24  21         0.0087132226

    Largest TIjAb Amplitudes:
      3   3   0   0        -0.1466164472
      4   3  40   0        -0.0982398021
      3   3   0   6        -0.0672681282
      3   3   6   0        -0.0615103953
      4   3  40   6        -0.0451876959
      3   3   0  21        -0.0414914872
      3   3  21   0        -0.0392882437
      1   0  40  40        -0.0377649276
      3   3   0  13        -0.0376952769
      3   3  13   0        -0.0355238420

    SCF energy       (wfn)                    =  -76.469038871802582
    Reference energy (file100)                =  -76.469038871802553

    Opposite-spin MP2 correlation energy      =   -0.160841657216813
    Same-spin MP2 correlation energy          =   -0.046650813973208
    MP2 correlation energy                    =   -0.207492471190023
      * MP2 total energy                      =  -76.676531342992575

    Opposite-spin CCSD correlation energy     =   -0.190494309139726
    Same-spin CCSD correlation energy         =   -0.043580701793687
    CCSD correlation energy                   =   -0.234075010659044
      * CCSD total energy                     =  -76.703113882461594

*** tstop() called on cqc05 at Thu Aug 20 19:56:46 2020
Module time:
	user time   =       1.08 seconds =       0.02 minutes
	system time =       0.62 seconds =       0.01 minutes
	total time  =          3 seconds =       0.05 minutes
Total time:
	user time   =       2.92 seconds =       0.05 minutes
	system time =       1.01 seconds =       0.02 minutes

*** Psi4 exiting successfully. Buy a developer a beer!
