                               Psi4 1.2a1.dev938

  ==> Input File <==

--------------------------------------------------------------------------
# Any line starting with the # character is a comment line
memory 250000 mb
molecule molecule{
1 2
C          0.0000000910        0.0000000000        0.6264717001
C         -0.0000000910        0.0000000000       -0.6264716992
H          0.0000003986        0.0000000000       -1.7031368583
H         -0.0000003989        0.0000000000        1.7031368473
}

set {
  reference uhf
  basis aug-cc-pv(t+d)z
  scf_type OUT_OF_CORE
  freeze_core true
}

energy('ccsd')
--------------------------------------------------------------------------

    Molecular point group: cs

    Geometry (in Angstrom), charge = 1, multiplicity = 2:

       Center              X                  Y                   Z               Mass
    ------------   -----------------  -----------------  -----------------  -----------------
           C          0.000000000012     0.000000000000     0.626471700111    12.000000000000
           C          0.000000000012     0.000000000000    -0.626471699189    12.000000000000
           H          0.000000646006     0.000000000000    -1.703136858289     1.007825032070
           H         -0.000000646283     0.000000000000     1.703136847311     1.007825032070

  Charge       = 1
  Multiplicity = 2
  Basis Set: AUG-CC-PV(T+D)Z
    Blend: AUG-CC-PV(T+D)Z

    Orbital Energies (a.u.)
    -----------------------

    Alpha Occupied:

       1Ap   -11.637807     2Ap   -11.634747     3Ap    -1.412597
       4Ap    -1.096047     5Ap    -1.006795     1App   -0.803325
       6Ap    -0.754549

    Alpha Virtual:

       2App   -0.170265     7Ap    -0.143096     8Ap    -0.111257
       9Ap    -0.096179     3App   -0.071271    10Ap    -0.065415
      11Ap    -0.058204    12Ap    -0.025290     4App   -0.020001
      13Ap    -0.014617    14Ap    -0.005351    15Ap     0.027461
      16Ap     0.066109     5App    0.068218    17Ap     0.078268
       6App    0.095882    18Ap     0.098949    19Ap     0.100143
       7App    0.183264    20Ap     0.191491    21Ap     0.191513
       8App    0.192966    22Ap     0.193495    23Ap     0.200289
       9App    0.229660    24Ap     0.229884    25Ap     0.234576
      10App    0.239402    26Ap     0.257010    27Ap     0.334229
      11App    0.368648    28Ap     0.378698    29Ap     0.386875
      30Ap     0.427231    12App    0.594709    31Ap     0.606976
      32Ap     0.625932    13App    0.626256    33Ap     0.637600
      34Ap     0.649372    14App    0.690281    35Ap     0.701302
      15App    0.713957    36Ap     0.714209    37Ap     0.744288
      16App    0.758443    38Ap     0.758497    39Ap     0.782660
      17App    0.782742    18App    0.784821    40Ap     0.794711
      41Ap     0.811851    19App    0.890053    42Ap     0.899580
      43Ap     0.907475    44Ap     0.927776    20App    0.927791
      45Ap     0.949746    21App    1.012733    46Ap     1.012740
      47Ap     1.045676    22App    1.117289    48Ap     1.128493
      23App    1.310742    49Ap     1.327234    50Ap     1.337960
      24App    1.338904    25App    1.466414    51Ap     1.478202
      52Ap     1.486634    26App    1.578983    53Ap     1.601538
      54Ap     1.666809    27App    1.711228    55Ap     1.711568
      56Ap     1.757399    57Ap     1.832131    58Ap     1.929312
      28App    2.047237    59Ap     2.063965    29App    2.453186
      60Ap     2.469361    61Ap     2.479322    62Ap     2.692509
      30App    2.808254    63Ap     2.809767    64Ap     2.823436
      31App    2.840005    65Ap     2.864288    32App    2.933883
      66Ap     2.964257    33App    3.013861    67Ap     3.013874
      34App    3.113663    68Ap     3.113822    69Ap     3.210245
      35App    3.222333    70Ap     3.230082    36App    3.318020
      71Ap     3.318062    72Ap     3.383986    37App    3.415217
      73Ap     3.436521    38App    3.500598    74Ap     3.526115
      75Ap     3.547075    39App    3.731399    76Ap     3.731820
      40App    3.831087    77Ap     3.831335    78Ap     3.978516
      41App    4.270933    79Ap     4.271531    80Ap     4.281802
      42App    4.388743    81Ap     4.409301    43App    4.464356
      82Ap     4.471031    44App    4.658542    83Ap     4.667583
      84Ap     4.956821    85Ap     5.048506    45App    5.380517
      86Ap     5.400918    87Ap     5.804880    46App    6.336992
      88Ap     6.359774    89Ap     6.387968    90Ap     6.461036
      91Ap    13.017861    92Ap    17.821047

    Beta Occupied:

       1Ap   -11.627365     2Ap   -11.624832     3Ap    -1.325937
       4Ap    -1.073872     5Ap    -1.000336     6Ap    -0.735357

    Beta Virtual:

       1App   -0.308063     7Ap    -0.134253     8Ap    -0.109383
       9Ap    -0.093530     2App   -0.086898    10Ap    -0.064785
       3App   -0.058622    11Ap    -0.054760    12Ap    -0.020801
      13Ap    -0.012700    14Ap    -0.003689     4App    0.003825
      15Ap     0.033616    16Ap     0.077906     5App    0.079194
      17Ap     0.082626    18Ap     0.100148     6App    0.101863
      19Ap     0.102527    20Ap     0.193878    21Ap     0.195100
       7App    0.195102    22Ap     0.196761     8App    0.204989
      23Ap     0.205647    24Ap     0.231977    25Ap     0.235243
       9App    0.238353    26Ap     0.259958    10App    0.269627
      27Ap     0.336212    28Ap     0.379513    11App    0.387143
      29Ap     0.391423    30Ap     0.431751    31Ap     0.609457
      12App    0.619679    32Ap     0.640950    13App    0.649795
      33Ap     0.650538    34Ap     0.658730    14App    0.699964
      35Ap     0.702270    15App    0.734109    36Ap     0.734386
      37Ap     0.751353    38Ap     0.769961    16App    0.769965
      39Ap     0.788319    17App    0.788667    18App    0.791015
      40Ap     0.794905    41Ap     0.816320    42Ap     0.904358
      43Ap     0.910857    19App    0.915626    44Ap     0.937523
      20App    0.938641    45Ap     0.954941    21App    1.018360
      46Ap     1.018360    47Ap     1.051856    22App    1.126593
      48Ap     1.128996    49Ap     1.329061    23App    1.333299
      50Ap     1.345586    24App    1.345875    51Ap     1.485932
      25App    1.489366    52Ap     1.489743    26App    1.601751
      53Ap     1.605156    54Ap     1.671239    55Ap     1.724224
      27App    1.724338    56Ap     1.764214    57Ap     1.838677
      58Ap     1.936335    28App    2.058056    59Ap     2.065459
      60Ap     2.478466    61Ap     2.484351    29App    2.488091
      62Ap     2.699240    63Ap     2.822518    30App    2.842643
      64Ap     2.842764    31App    2.862433    65Ap     2.868093
      32App    2.966613    66Ap     2.967818    67Ap     3.037405
      33App    3.037405    34App    3.129866    68Ap     3.129877
      69Ap     3.230627    35App    3.239109    70Ap     3.239886
      36App    3.338118    71Ap     3.338119    72Ap     3.390979
      37App    3.432540    73Ap     3.438194    38App    3.526031
      74Ap     3.529779    75Ap     3.551630    39App    3.747166
      76Ap     3.747176    40App    3.836784    77Ap     3.836796
      78Ap     3.986579    41App    4.281160    79Ap     4.281290
      80Ap     4.285970    42App    4.405810    81Ap     4.411073
      43App    4.465186    82Ap     4.469227    44App    4.661744
      83Ap     4.667077    84Ap     4.959835    85Ap     5.049979
      45App    5.392472    86Ap     5.402862    87Ap     5.810316
      46App    6.348515    88Ap     6.361470    89Ap     6.389403
      90Ap     6.464765    91Ap    13.024046    92Ap    17.828275

    Final Occupation by Irrep:
             Ap   App
    DOCC [     6,    0 ]
    SOCC [     0,    1 ]

  Energy converged.

  @UHF Final Energy:   -76.48987038859293

   => Energetics <=

    Nuclear Repulsion Energy =             23.9836477023460368
    One-Electron Energy =                -145.2134705470124914
    Two-Electron Energy =                  44.7399524560735173
    PCM Polarization Energy =               0.0000000000000000
    Total Energy =                        -76.4898703885929478

    Alert: EFP and PCM quantities not currently incorporated into SCF psivars.
  UHF NO Occupations:
  HONO-2 :    5 Ap 1.9990994
  HONO-1 :    6 Ap 1.9986911
  HONO-0 :    1App 1.0000000
  LUNO+0 :    7 Ap 0.0013089
  LUNO+1 :    8 Ap 0.0009006
  LUNO+2 :    9 Ap 0.0002018
  LUNO+3 :   10 Ap 0.0001079

Properties will be evaluated at   0.000000,   0.000000,   0.000000 Bohr

Properties computed using the SCF density matrix

  Nuclear Dipole Moment: (a.u.)
     X:    -0.0000      Y:     0.0000      Z:    -0.0000

  Electronic Dipole Moment: (a.u.)
     X:     0.0000      Y:     0.0000      Z:     0.0000

  Dipole Moment: (a.u.)
     X:    -0.0000      Y:     0.0000      Z:    -0.0000     Total:     0.0000

  Dipole Moment: (Debye)
     X:    -0.0000      Y:     0.0000      Z:    -0.0000     Total:     0.0000

*** tstop() called on cqc05 at Thu Aug 20 20:11:38 2020
Module time:
	user time   =      12.25 seconds =       0.20 minutes
	system time =       0.71 seconds =       0.01 minutes
	total time  =         12 seconds =       0.20 minutes
Total time:
	user time   =      12.25 seconds =       0.20 minutes
	system time =       0.71 seconds =       0.01 minutes
	total time  =         12 seconds =       0.20 minutes

*** tstart() called on cqc05
*** at Thu Aug 20 20:11:38 2020

	Wfn Parameters:
	--------------------
	Wavefunction         = CCSD
	Number of irreps     = 2
	Number of MOs        = 138
	Number of active MOs = 136
	AO-Basis             = NONE
	Semicanonical        = false
	Reference            = UHF
	Print Level          = 1

	IRREP	# MOs	# FZDC	# DOCC	# SOCC	# VIRT	# FZVR
	-----	-----	------	------	------	------	------
	 Ap	   92	    2	    4	    0	    86	    0
	 App	   46	    0	    0	    1	    45	    0
	Transforming integrals...
	IWL integrals will be deleted.
	(OO|OO)...
	Presorting SO-basis two-electron integrals.
	Sorting File: SO Ints (nn|nn) nbuckets = 1
	Transforming the one-electron integrals and constructing Fock matrices
	Starting AA/AB first half-transformation.
	Sorting AA/AB half-transformed integrals.
	Starting BB first half-transformation.
	Sorting BB half-transformed integrals.
	First half integral transformation complete.
	Starting AA second half-transformation.
	Starting AB second half-transformation.
	Starting BB second half-transformation.
	Two-electron integral transformation complete.
	(OO|OV)...
	Starting AA second half-transformation.
	Starting AB second half-transformation.
	Starting BB second half-transformation.
	Two-electron integral transformation complete.
	(OO|VV)...
	Starting AA second half-transformation.
	Starting AB second half-transformation.
	Starting BB second half-transformation.
	Two-electron integral transformation complete.
	(OV|OO)...
	Starting AA/AB first half-transformation.
	Sorting AA/AB half-transformed integrals.
	Starting BB first half-transformation.
	Sorting BB half-transformed integrals.
	First half integral transformation complete.
	Starting AA second half-transformation.
	Starting AB second half-transformation.
	Starting BB second half-transformation.
	Two-electron integral transformation complete.
	(OV|OV)...
	Starting AA second half-transformation.
	Starting AB second half-transformation.
	Starting BB second half-transformation.
	Two-electron integral transformation complete.
	(OV|VV)...
	Starting AA second half-transformation.
	Starting AB second half-transformation.
	Starting BB second half-transformation.
	Two-electron integral transformation complete.
	(VV|OO)...
	Starting AA/AB first half-transformation.
	Sorting AA/AB half-transformed integrals.
	Starting BB first half-transformation.
	Sorting BB half-transformed integrals.
	First half integral transformation complete.
	Starting AA second half-transformation.
	Starting AB second half-transformation.
	Starting BB second half-transformation.
	Two-electron integral transformation complete.
	(VV|OV)...
	Starting AA second half-transformation.
	Starting AB second half-transformation.
	Starting BB second half-transformation.
	Two-electron integral transformation complete.
	(VV|VV)...
	Starting AA second half-transformation.
	Starting AB second half-transformation.
	Starting BB second half-transformation.
	Two-electron integral transformation complete.
	Frozen core energy     =    -76.03943100399287

	Size of irrep 0 of <AB|CD> integrals:     21.576 (MW) /    172.608 (MB)
	Size of irrep 1 of <AB|CD> integrals:     14.977 (MW) /    119.815 (MB)
	Total:                                    36.553 (MW) /    292.423 (MB)

	Size of irrep 0 of <ab|cd> integrals:     21.996 (MW) /    175.969 (MB)
	Size of irrep 1 of <ab|cd> integrals:     15.650 (MW) /    125.199 (MB)
	Total:                                    37.646 (MW) /    301.168 (MB)

	Size of irrep 0 of <Ab|Cd> integrals:     89.605 (MW) /    716.841 (MB)
	Size of irrep 1 of <Ab|Cd> integrals:     61.246 (MW) /    489.970 (MB)
	Total:                                   150.851 (MW) /   1206.811 (MB)

	Size of irrep 0 of <IA|BC> integrals:      3.665 (MW) /     29.318 (MB)
	Size of irrep 1 of <IA|BC> integrals:      2.059 (MW) /     16.471 (MB)
	Total:                                     5.724 (MW) /     45.789 (MB)

	Size of irrep 0 of <ia|bc> integrals:      3.272 (MW) /     26.177 (MB)
	Size of irrep 1 of <ia|bc> integrals:      1.456 (MW) /     11.646 (MB)
	Total:                                     4.728 (MW) /     37.823 (MB)

	Size of irrep 0 of <Ia|Bc> integrals:      3.692 (MW) /     29.534 (MB)
	Size of irrep 1 of <Ia|Bc> integrals:      2.113 (MW) /     16.904 (MB)
	Total:                                     5.805 (MW) /     46.438 (MB)

	Size of irrep 0 of <iA|bC> integrals:      3.256 (MW) /     26.050 (MB)
	Size of irrep 1 of <iA|bC> integrals:      1.409 (MW) /     11.269 (MB)
	Total:                                     4.665 (MW) /     37.320 (MB)

	Size of irrep 0 of tIjAb amplitudes:       0.151 (MW) /      1.212 (MB)
	Size of irrep 1 of tIjAb amplitudes:       0.031 (MW) /      0.250 (MB)
	Total:                                     0.183 (MW) /      1.462 (MB)

	Nuclear Rep. energy          =     23.98364770234604
	SCF energy                   =    -76.48987038859293
	One-electron energy          =    -39.65935827667368
	Two-electron (AA) energy     =      3.85756130747453
	Two-electron (BB) energy     =      2.18482836692930
	Two-electron (AB) energy     =      9.18288151532394
	Two-electron energy          =     15.22527118972776
	Reference energy             =    -76.48987038859276

*** tstop() called on cqc05 at Thu Aug 20 20:12:03 2020
Module time:
	user time   =      15.16 seconds =       0.25 minutes
	system time =       8.81 seconds =       0.15 minutes
	total time  =         25 seconds =       0.42 minutes
Total time:
	user time   =      27.41 seconds =       0.46 minutes
	system time =       9.52 seconds =       0.16 minutes
	total time  =         37 seconds =       0.62 minutes

*** tstart() called on cqc05
*** at Thu Aug 20 20:12:03 2020

            **************************
            *                        *
            *        CCENERGY        *
            *                        *
            **************************

    Nuclear Rep. energy (wfn)     =   23.983647702346037
    SCF energy          (wfn)     =  -76.489870388592934
    Reference energy    (file100) =  -76.489870388592763

    Input parameters:
    -----------------
    Wave function   =     CCSD
    Reference wfn   =     UHF
    Brueckner       =     No
    Memory (Mbytes) =     250000.0
    Maxiter         =     50
    R_Convergence   =     1.0e-07
    E_Convergence   =     1.0e-06
    Restart         =     Yes
    DIIS            =     Yes
    AO Basis        =     NONE
    ABCD            =     NEW
    Cache Level     =     2
    Cache Type      =     LRU
    Print Level     =     1
    Num. of threads =     4
    # Amps to Print =     10
    Print MP2 Amps? =     No
    Analyze T2 Amps =     No
    Print Pair Ener =     No
    Local CC        =     No
    SCS-MP2         =     False
    SCSN-MP2        =     False
    SCS-CCSD        =     False

MP2 correlation energy -0.2513912200149807
                Solving CC Amplitude Equations
                ------------------------------
  Iter             Energy              RMS        T1Diag      D1Diag    New D1Diag    D2Diag
  ----     ---------------------    ---------   ----------  ----------  ----------   --------
     0        -0.251391220014981    0.000e+00    0.000000    0.000000    0.000000    0.000000
     1        -0.264893771064665    5.738e-02    0.012571    0.000000    0.000000    0.000000
     2        -0.273172600617074    1.967e-02    0.014659    0.000000    0.000000    0.000000
     3        -0.274340623895952    7.381e-03    0.016366    0.000000    0.000000    0.000000
     4        -0.274374031274409    2.274e-03    0.016547    0.000000    0.000000    0.000000
     5        -0.274386809392347    5.188e-04    0.016538    0.000000    0.000000    0.000000
     6        -0.274389189869904    1.328e-04    0.016526    0.000000    0.000000    0.000000
     7        -0.274390870540246    3.837e-05    0.016523    0.000000    0.000000    0.000000
     8        -0.274391114170854    1.185e-05    0.016523    0.000000    0.000000    0.000000
     9        -0.274390941733239    3.910e-06    0.016522    0.000000    0.000000    0.000000
    10        -0.274390952441893    1.342e-06    0.016523    0.000000    0.000000    0.000000
    11        -0.274390956764759    3.889e-07    0.016523    0.000000    0.000000    0.000000
    12        -0.274390966940491    1.275e-07    0.016523    0.000000    0.000000    0.000000
    13        -0.274390967984876    3.932e-08    0.016523    0.000000    0.000000    0.000000
    13        -0.274390967984876    3.932e-08    0.016523    0.000000    0.000000    0.000000

    Iterations converged.

    CCSD corr. energy   =   -0.274390967984876
    PPL corr. energy    =    0.077110032383388
    OS PPL corr. energy =    0.066122568960798
    SS PPL corr. energy =    0.010987463422590
    Largest TIA Amplitudes:
              3  19         0.0173398596
              4  94         0.0119807143
              3  36         0.0097148777
              3   3         0.0094268452
              3  28         0.0092587514
              4 103         0.0091599496
              4  98         0.0081412477
              3  46         0.0067342724
              4 110         0.0061279909
              3  42         0.0061183053

    Largest Tia Amplitudes:
              3  19         0.0189707154
              3  36         0.0110256486
              3   3         0.0108624324
              3  28         0.0097744010
              3  46         0.0079362197
              3  42         0.0065713584
              1   8         0.0063193425
              1  16        -0.0060894991
              0  10        -0.0056909992
              3  54         0.0056514011

    Largest TIJAB Amplitudes:
      4   3  86   0        -0.0698050404
      4   3  86   6        -0.0254030822
      4   3  86  13        -0.0223510008
      4   3  88   0        -0.0208961657
      4   3  91   0        -0.0204512085
      4   2  86  27        -0.0179352773
      4   2  86   8        -0.0160538289

      * MP2 total energy                      =  -76.741261608607743
      * CCSD total energy                     =  -76.764261356577634
*** Psi4 exiting successfully. Buy a developer a beer!
