                               Psi4 1.2a1.dev938

  ==> Input File <==

--------------------------------------------------------------------------
# Any line starting with the # character is a comment line
memory 250000 mb
molecule molecule{
1 2
C          0.0000000910        0.0000000000        0.6264717001
C         -0.0000000910        0.0000000000       -0.6264716992
H          0.0000003986        0.0000000000       -1.7031368583
H         -0.0000003989        0.0000000000        1.7031368473
}

set {
  reference uhf
  basis aug-cc-pv(q+d)z
  scf_type OUT_OF_CORE
  freeze_core true
}

energy('ccsd')
--------------------------------------------------------------------------

    Molecular point group: cs

    Geometry (in Angstrom), charge = 1, multiplicity = 2:

       Center              X                  Y                   Z               Mass
    ------------   -----------------  -----------------  -----------------  -----------------
           C          0.000000000012     0.000000000000     0.626471700111    12.000000000000
           C          0.000000000012     0.000000000000    -0.626471699189    12.000000000000
           H          0.000000646006     0.000000000000    -1.703136858289     1.007825032070
           H         -0.000000646283     0.000000000000     1.703136847311     1.007825032070

  Charge       = 1
  Multiplicity = 2
  Basis Set: AUG-CC-PV(Q+D)Z
    Blend: AUG-CC-PV(Q+D)Z

    Orbital Energies (a.u.)
    -----------------------

    Alpha Occupied:

       1Ap   -11.636795     2Ap   -11.633733     3Ap    -1.412150
       4Ap    -1.095979     5Ap    -1.006830     6Ap    -0.803451
       1App   -0.754578

    Alpha Virtual:

       7Ap    -0.170248     2App   -0.143151     8Ap    -0.111566
       9Ap    -0.096379    10Ap    -0.076237     3App   -0.071272
      11Ap    -0.061803    12Ap    -0.029945    13Ap    -0.029328
       4App   -0.025689    14Ap    -0.013476    15Ap     0.013083
      16Ap     0.028014     5App    0.028794    17Ap     0.042037
      18Ap     0.066218     6App    0.070276    19Ap     0.085701
      20Ap     0.119637     7App    0.119666    21Ap     0.121590
      22Ap     0.123909     8App    0.129051     9App    0.133955
      23Ap     0.137693    24Ap     0.150585    25Ap     0.175807
      26Ap     0.176792    10App    0.178648    27Ap     0.273282
      28Ap     0.282263    29Ap     0.294270    30Ap     0.321980
      11App    0.331111    12App    0.413110    31Ap     0.413446
      32Ap     0.420910    13App    0.431426    33Ap     0.463114
      14App    0.474270    34Ap     0.487457    15App    0.488269
      35Ap     0.495002    16App    0.499247    36Ap     0.506306
      37Ap     0.513575    38Ap     0.527260    17App    0.542397
      39Ap     0.542415    40Ap     0.559958    18App    0.566073
      41Ap     0.618029    19App    0.619457    42Ap     0.620758
      43Ap     0.623029    20App    0.632665    44Ap     0.653913
      45Ap     0.670368    21App    0.670373    46Ap     0.705658
      47Ap     0.869788    48Ap     0.871782    49Ap     0.885414
      22App    0.885923    23App    0.895491    50Ap     0.915899
      24App    0.960125    51Ap     0.960222    52Ap     0.987774
      25App    1.002810    26App    1.142562    53Ap     1.142672
      54Ap     1.150749    27App    1.165401    55Ap     1.178466
      56Ap     1.179666    57Ap     1.327854    58Ap     1.338868
      59Ap     1.375219    28App    1.382259    60Ap     1.422090
      29App    1.422101    61Ap     1.467592    30App    1.490132
      62Ap     1.510691    63Ap     1.532442    64Ap     1.590334
      31App    1.590335    32App    1.618743    65Ap     1.618956
      66Ap     1.659241    33App    1.668244    67Ap     1.668441
      68Ap     1.722111    34App    1.732686    69Ap     1.737124
      35App    1.737735    70Ap     1.739945    36App    1.740036
      71Ap     1.831140    37App    1.831246    72Ap     1.832857
      38App    1.843820    73Ap     1.895335    39App    1.918394
      74Ap     1.941692    75Ap     2.015320    40App    2.015339
      76Ap     2.018653    41App    2.040078    77Ap     2.071975
      42App    2.071975    78Ap     2.096197    43App    2.096390
      44App    2.101683    79Ap     2.101704    80Ap     2.109685
      81Ap     2.154007    82Ap     2.198413    45App    2.217104
      83Ap     2.329984    84Ap     2.330521    46App    2.330741
      47App    2.345978    85Ap     2.383765    48App    2.384090
      86Ap     2.414180    87Ap     2.414290    88Ap     2.630967
      89Ap     2.776352    90Ap     2.779372    49App    2.784177
      91Ap     2.784912    50App    2.789119    92Ap     2.992645
      51App    2.992662    93Ap     3.058669    94Ap     3.107179
      52App    3.130018    95Ap     3.421089    53App    3.436018
      54App    3.467393    96Ap     3.467552    97Ap     3.553800
      55App    3.571270    98Ap     3.590541    99Ap     3.597534
     100Ap     3.732334    56App    3.732373   101Ap     3.751233
      57App    3.751360   102Ap     3.810226   103Ap     3.869987
      58App    3.895547   104Ap     4.043812   105Ap     4.076342
     106Ap     4.454009    59App    4.474379   107Ap     4.530607
     108Ap     4.609221   109Ap     4.713537    60App    4.726907
     110Ap     5.164175   111Ap     5.374478    61App    5.374514
     112Ap     5.426197    62App    5.427326   113Ap     5.515746
      63App    5.515748   114Ap     5.588421    64App    5.623669
     115Ap     5.700872    65App    5.700979   116Ap     5.717327
     117Ap     5.783274    66App    5.783274   118Ap     5.935112
      67App    5.955439   119Ap     6.003368    68App    6.003535
     120Ap     6.010741    69App    6.011482   121Ap     6.048622
      70App    6.071723   122Ap     6.137034    71App    6.137057
      72App    6.260900   123Ap     6.261155   124Ap     6.395993
     125Ap     6.417949    73App    6.420496   126Ap     6.443314
      74App    6.443683    75App    6.444966   127Ap     6.483108
      76App    6.483202   128Ap     6.551452   129Ap     6.580421
     130Ap     6.773987    77App    6.774001   131Ap     6.851321
      78App    6.851459   132Ap     7.201148   133Ap     7.375033
     134Ap     7.441396    79App    7.441979   135Ap     7.653589
      80App    7.683300    81App    7.772480   136Ap     7.772687
     137Ap     7.809508   138Ap     7.836003    82App    7.855993
     139Ap     8.005345    83App    8.009166   140Ap     8.174495
     141Ap     8.237470    84App    8.245462   142Ap     8.538101
      85App    8.568712   143Ap     8.569178    86App    9.005158
     144Ap     9.005276    87App    9.046629   145Ap     9.046632
     146Ap     9.178085   147Ap     9.271281    88App    9.289143
     148Ap     9.358635    89App    9.365572   149Ap     9.374963
     150Ap    10.059450    90App   10.069797   151Ap    10.340190
     152Ap    10.498977   153Ap    11.186444   154Ap    11.188342
      91App   11.207210   155Ap    11.844189   156Ap    11.929232
      92App   11.946151   157Ap    13.633032   158Ap    14.055010
     159Ap    24.806877   160Ap    27.121971

    Beta Occupied:

       1Ap   -11.626275     2Ap   -11.623740     3Ap    -1.325642
       4Ap    -1.073861     5Ap    -1.000455     1App   -0.735558

    Beta Virtual:

       6Ap    -0.307839     2App   -0.134274     7Ap    -0.109719
       8Ap    -0.093763     9Ap    -0.087244     3App   -0.070777
      10Ap    -0.065892    11Ap    -0.058903    12Ap    -0.025811
       4App   -0.024174    13Ap    -0.011991    14Ap    -0.010469
      15Ap     0.019100    16Ap     0.035329     5App    0.035401
      17Ap     0.045717     6App    0.070459    18Ap     0.073221
      19Ap     0.087340     7App    0.120538    20Ap     0.120631
       8App    0.131466     9App    0.135237    21Ap     0.140016
      22Ap     0.145202    23Ap     0.145889    24Ap     0.151778
      25Ap     0.176774    10App    0.178670    26Ap     0.178988
      27Ap     0.278907    28Ap     0.284768    29Ap     0.296982
      11App    0.331733    30Ap     0.339039    12App    0.432307
      31Ap     0.432495    13App    0.433996    32Ap     0.446044
      14App    0.476951    33Ap     0.477079    15App    0.492807
      34Ap     0.492855    35Ap     0.504605    16App    0.513359
      36Ap     0.514353    37Ap     0.520391    38Ap     0.530104
      17App    0.549290    39Ap     0.549449    40Ap     0.562946
      18App    0.566096    41Ap     0.620067    19App    0.620307
      42Ap     0.622616    43Ap     0.632919    20App    0.634233
      44Ap     0.656125    45Ap     0.672654    21App    0.672656
      46Ap     0.710198    47Ap     0.880006    22App    0.887839
      48Ap     0.891075    23App    0.895701    49Ap     0.895815
      50Ap     0.924020    24App    0.963601    51Ap     0.963667
      25App    1.005409    52Ap     1.009898    53Ap     1.154012
      26App    1.154254    54Ap     1.164205    27App    1.167492
      55Ap     1.181493    56Ap     1.183930    57Ap     1.332081
      58Ap     1.346430    59Ap     1.377414    28App    1.381940
      29App    1.423182    60Ap     1.423183    30App    1.494503
      61Ap     1.497064    62Ap     1.511217    63Ap     1.533951
      64Ap     1.590724    31App    1.590725    32App    1.626209
      65Ap     1.626304    66Ap     1.659405    33App    1.673291
      67Ap     1.673336    68Ap     1.731088    34App    1.734102
      35App    1.748200    69Ap     1.748202    36App    1.770532
      70Ap     1.770740    71Ap     1.842195    37App    1.844569
      38App    1.852652    72Ap     1.852660    39App    1.921974
      73Ap     1.924572    74Ap     1.948861    75Ap     2.020960
      40App    2.020990    76Ap     2.036043    41App    2.043810
      77Ap     2.077339    42App    2.077339    78Ap     2.107338
      43App    2.107352    79Ap     2.110802    44App    2.110855
      80Ap     2.115181    81Ap     2.156848    82Ap     2.217458
      45App    2.219977    83Ap     2.338651    84Ap     2.345318
      46App    2.345604    47App    2.346657    85Ap     2.389565
      48App    2.389637    86Ap     2.420087    87Ap     2.426135
      88Ap     2.636598    89Ap     2.781651    90Ap     2.784104
      49App    2.789261    50App    2.794240    91Ap     2.794332
      92Ap     2.999950    51App    2.999952    93Ap     3.062167
      94Ap     3.126921    52App    3.132662    95Ap     3.427967
      53App    3.436426    54App    3.471471    96Ap     3.471473
      97Ap     3.561810    55App    3.572356    98Ap     3.591661
      99Ap     3.602428   100Ap     3.747228    56App    3.747359
     101Ap     3.752671    57App    3.752756   102Ap     3.810398
     103Ap     3.891346    58App    3.899484   104Ap     4.047515
     105Ap     4.086654   106Ap     4.463607    59App    4.475886
     107Ap     4.538607   108Ap     4.616185   109Ap     4.715428
      60App    4.726328   110Ap     5.168845   111Ap     5.389409
      61App    5.389412   112Ap     5.446011    62App    5.446225
     113Ap     5.530144    63App    5.530144   114Ap     5.617350
      64App    5.627990   115Ap     5.707502    65App    5.707543
     116Ap     5.725369   117Ap     5.796568    66App    5.796568
     118Ap     5.946696    67App    5.957442   119Ap     6.011262
      68App    6.011328   120Ap     6.020951    69App    6.021095
     121Ap     6.062120    70App    6.074142   122Ap     6.152811
      71App    6.152814    72App    6.281641   123Ap     6.281676
     124Ap     6.419146    73App    6.426784   125Ap     6.437945
      74App    6.446547   126Ap     6.453574    75App    6.453759
     127Ap     6.486791    76App    6.486812   128Ap     6.556232
     129Ap     6.586289   130Ap     6.783619    77App    6.783620
     131Ap     6.865089    78App    6.865089   132Ap     7.209561
     133Ap     7.377642   134Ap     7.455576    79App    7.455815
     135Ap     7.672375    80App    7.686425    81App    7.777093
     136Ap     7.777179   137Ap     7.817058   138Ap     7.848327
      82App    7.858038   139Ap     8.004655    83App    8.007985
     140Ap     8.174053   141Ap     8.239490    84App    8.244639
     142Ap     8.540177    85App    8.572671   143Ap     8.573042
      86App    9.006837   144Ap     9.006896   145Ap     9.045710
      87App    9.045710   146Ap     9.178984   147Ap     9.279706
      88App    9.290078   148Ap     9.358864    89App    9.364359
     149Ap     9.377115   150Ap    10.062096    90App   10.069347
     151Ap    10.339481   152Ap    10.498997   153Ap    11.188018
     154Ap    11.195628    91App   11.208305   155Ap    11.844114
     156Ap    11.934347    92App   11.946701   157Ap    13.634413
     158Ap    14.056514   159Ap    24.813351   160Ap    27.126997

    Final Occupation by Irrep:
             Ap   App
    DOCC [     5,    1 ]
    SOCC [     1,    0 ]

  Energy converged.

  @UHF Final Energy:   -76.49423303558501

   => Energetics <=

    Nuclear Repulsion Energy =             23.9836477023460368
    One-Electron Energy =                -145.2267154820640940
    Two-Electron Energy =                  44.7488347441330561
    PCM Polarization Energy =               0.0000000000000000
    Total Energy =                        -76.4942330355850117

    Alert: EFP and PCM quantities not currently incorporated into SCF psivars.
  UHF NO Occupations:
  HONO-2 :    4 Ap 1.9990985
  HONO-1 :    5 Ap 1.9986735
  HONO-0 :    6 Ap 1.0000000
  LUNO+0 :    7 Ap 0.0013265
  LUNO+1 :    8 Ap 0.0009015
  LUNO+2 :    9 Ap 0.0002038
  LUNO+3 :    2App 0.0001122

Properties will be evaluated at   0.000000,   0.000000,   0.000000 Bohr

Properties computed using the SCF density matrix

  Nuclear Dipole Moment: (a.u.)
     X:    -0.0000      Y:     0.0000      Z:    -0.0000

  Electronic Dipole Moment: (a.u.)
     X:     0.0000      Y:     0.0000      Z:     0.0000

  Dipole Moment: (a.u.)
     X:    -0.0000      Y:     0.0000      Z:     0.0000     Total:     0.0000

  Dipole Moment: (Debye)
     X:    -0.0000      Y:     0.0000      Z:     0.0000     Total:     0.0000

*** tstop() called on cqc05 at Thu Aug 20 22:44:45 2020
Module time:
	user time   =     134.46 seconds =       2.24 minutes
	system time =       9.82 seconds =       0.16 minutes
	total time  =        143 seconds =       2.38 minutes
Total time:
	user time   =     134.46 seconds =       2.24 minutes
	system time =       9.82 seconds =       0.16 minutes
	total time  =        143 seconds =       2.38 minutes

*** tstart() called on cqc05
*** at Thu Aug 20 22:44:45 2020

	Wfn Parameters:
	--------------------
	Wavefunction         = CCSD
	Number of irreps     = 2
	Number of MOs        = 252
	Number of active MOs = 250
	AO-Basis             = NONE
	Semicanonical        = false
	Reference            = UHF
	Print Level          = 1

	IRREP	# MOs	# FZDC	# DOCC	# SOCC	# VIRT	# FZVR
	-----	-----	------	------	------	------	------
	 Ap	   160	    2	    3	    1	    154	    0
	 App	   92	    0	    1	    0	    91	    0
	Transforming integrals...
	IWL integrals will be deleted.
	(OO|OO)...
	Presorting SO-basis two-electron integrals.
	Sorting File: SO Ints (nn|nn) nbuckets = 1
	Transforming the one-electron integrals and constructing Fock matrices
	Starting AA/AB first half-transformation.
	Sorting AA/AB half-transformed integrals.
	Starting BB first half-transformation.
	Sorting BB half-transformed integrals.
	First half integral transformation complete.
	Starting AA second half-transformation.
	Starting AB second half-transformation.
	Starting BB second half-transformation.
	Two-electron integral transformation complete.
	(OO|OV)...
	Starting AA second half-transformation.
	Starting AB second half-transformation.
	Starting BB second half-transformation.
	Two-electron integral transformation complete.
	(OO|VV)...
	Starting AA second half-transformation.
	Starting AB second half-transformation.
	Starting BB second half-transformation.
	Two-electron integral transformation complete.
	(OV|OO)...
	Starting AA/AB first half-transformation.
	Sorting AA/AB half-transformed integrals.
	Starting BB first half-transformation.
	Sorting BB half-transformed integrals.
	First half integral transformation complete.
	Starting AA second half-transformation.
	Starting AB second half-transformation.
	Starting BB second half-transformation.
	Two-electron integral transformation complete.
	(OV|OV)...
	Starting AA second half-transformation.
	Starting AB second half-transformation.
	Starting BB second half-transformation.
	Two-electron integral transformation complete.
	(OV|VV)...
	Starting AA second half-transformation.
	Starting AB second half-transformation.
	Starting BB second half-transformation.
	Two-electron integral transformation complete.
	(VV|OO)...
	Starting AA/AB first half-transformation.
	Sorting AA/AB half-transformed integrals.
	Starting BB first half-transformation.
	Sorting BB half-transformed integrals.
	First half integral transformation complete.
	Starting AA second half-transformation.
	Starting AB second half-transformation.
	Starting BB second half-transformation.
	Two-electron integral transformation complete.
	(VV|OV)...
	Starting AA second half-transformation.
	Starting AB second half-transformation.
	Starting BB second half-transformation.
	Two-electron integral transformation complete.
	(VV|VV)...
	Starting AA second half-transformation.
	Starting AB second half-transformation.
	Starting BB second half-transformation.
	Two-electron integral transformation complete.
	Frozen core energy     =    -76.04078348618570

	Size of irrep 0 of <AB|CD> integrals:    252.047 (MW) /   2016.379 (MB)
	Size of irrep 1 of <AB|CD> integrals:    196.392 (MW) /   1571.138 (MB)
	Total:                                   448.440 (MW) /   3587.517 (MB)

	Size of irrep 0 of <ab|cd> integrals:    256.961 (MW) /   2055.687 (MB)
	Size of irrep 1 of <ab|cd> integrals:    198.951 (MW) /   1591.608 (MB)
	Total:                                   455.912 (MW) /   3647.295 (MB)

	Size of irrep 0 of <Ab|Cd> integrals:   1033.687 (MW) /   8269.494 (MB)
	Size of irrep 1 of <Ab|Cd> integrals:    790.678 (MW) /   6325.425 (MB)
	Total:                                  1824.365 (MW) /  14594.920 (MB)

	Size of irrep 0 of <IA|BC> integrals:     22.622 (MW) /    180.975 (MB)
	Size of irrep 1 of <IA|BC> integrals:     14.519 (MW) /    116.148 (MB)
	Total:                                    37.140 (MW) /    297.123 (MB)

	Size of irrep 0 of <ia|bc> integrals:     17.962 (MW) /    143.697 (MB)
	Size of irrep 1 of <ia|bc> integrals:     12.074 (MW) /     96.591 (MB)
	Total:                                    30.036 (MW) /    240.288 (MB)

	Size of irrep 0 of <Ia|Bc> integrals:     22.859 (MW) /    182.875 (MB)
	Size of irrep 1 of <Ia|Bc> integrals:     14.594 (MW) /    116.750 (MB)
	Total:                                    37.453 (MW) /    299.625 (MB)

	Size of irrep 0 of <iA|bC> integrals:     17.780 (MW) /    142.236 (MB)
	Size of irrep 1 of <iA|bC> integrals:     12.007 (MW) /     96.055 (MB)
	Total:                                    29.786 (MW) /    238.291 (MB)

	Size of irrep 0 of tIjAb amplitudes:       0.418 (MW) /      3.344 (MB)
	Size of irrep 1 of tIjAb amplitudes:       0.197 (MW) /      1.575 (MB)
	Total:                                     0.615 (MW) /      4.918 (MB)

	Nuclear Rep. energy          =     23.98364770234604
	SCF energy                   =    -76.49423303558501
	One-electron energy          =    -39.66569168565973
	Two-electron (AA) energy     =      3.85839225636801
	Two-electron (BB) energy     =      2.18525268904013
	Two-electron (AB) energy     =      9.18494948850632
	Two-electron energy          =     15.22859443391446
	Reference energy             =    -76.49423303558494

*** tstop() called on cqc05 at Thu Aug 20 22:56:34 2020
Module time:
	user time   =     235.39 seconds =       3.92 minutes
	system time =     105.37 seconds =       1.76 minutes
	total time  =        709 seconds =      11.82 minutes
Total time:
	user time   =     369.85 seconds =       6.16 minutes
	system time =     115.19 seconds =       1.92 minutes
	total time  =        852 seconds =      14.20 minutes

*** tstart() called on cqc05
*** at Thu Aug 20 22:56:34 2020

            **************************
            *                        *
            *        CCENERGY        *
            *                        *
            **************************

    Nuclear Rep. energy (wfn)     =   23.983647702346037
    SCF energy          (wfn)     =  -76.494233035585012
    Reference energy    (file100) =  -76.494233035584941

    Input parameters:
    -----------------
    Wave function   =     CCSD
    Reference wfn   =     UHF
    Brueckner       =     No
    Memory (Mbytes) =     250000.0
    Maxiter         =     50
    R_Convergence   =     1.0e-07
    E_Convergence   =     1.0e-06
    Restart         =     Yes

      * MP2 total energy                      =  -76.760645729149118
      * CCSD total energy                     =  -76.780341547630982
*** Psi4 exiting successfully. Buy a developer a beer!
