                               Psi4 1.2a1.dev938

  ==> Input File <==

--------------------------------------------------------------------------
# Any line starting with the # character is a comment line
memory 250000 mb
molecule molecule{
-1 3
P          0.0000000000        0.0000000000        0.0000000000
}

set {
  reference uhf
  basis aug-cc-pv(5+d)z
  scf_type OUT_OF_CORE
  freeze_core true
}

energy('ccsd')
--------------------------------------------------------------------------

    Molecular point group: d2h
    Geometry (in Angstrom), charge = -1, multiplicity = 3:

       Center              X                  Y                   Z               Mass
    ------------   -----------------  -----------------  -----------------  -----------------
           P          0.000000000000     0.000000000000     0.000000000000    30.973761629000

  Charge       = -1
  Multiplicity = 3
  Basis Set: AUG-CC-PV(5+D)Z
    Blend: AUG-CC-PV(5+D)Z

    Orbital Energies (a.u.)
    -----------------------

    Alpha Occupied:

       1Ag   -79.701679     2Ag    -7.241579     1B1u   -5.143101
       1B2u   -5.143101     1B3u   -5.130394     3Ag    -0.530789
       2B1u   -0.123707     2B2u   -0.123707     2B3u   -0.067078

    Alpha Virtual:

       3B1u    0.192640     3B2u    0.192640     3B3u    0.201374
       4Ag     0.213670     1B3g    0.308150     5Ag     0.308150
       1B1g    0.316950     1B2g    0.316950     6Ag     0.320608
       4B1u    0.501585     4B2u    0.501585     4B3u    0.525720
       5B1u    0.543466     5B2u    0.543466     1Au     0.552197
       5B3u    0.552197     7Ag     0.553937     6B1u    0.558309
       6B2u    0.558309     6B3u    0.561057     8Ag     0.601676
       2B3g    0.601676     2B2g    0.626886     2B1g    0.626886
       9Ag     0.637132    10Ag     1.104971     3B3g    1.104971
       3B2g    1.115846     3B1g    1.115846     4B3g    1.123804
      11Ag     1.123804     4B2g    1.128747     4B1g    1.128747
      12Ag     1.130430     7B1u    1.197821     7B2u    1.197821
      13Ag     1.205884     5B3g    1.205884     7B3u    1.215655
       2Au     1.215655     8B1u    1.226212     8B2u    1.226212
       8B3u    1.229924     5B2g    1.232236     5B1g    1.232236
      14Ag     1.242157     9B1u    1.349622     9B2u    1.349622
       9B3u    1.385127    15Ag     1.578113    10B1u    2.389408
      10B2u    2.389408    10B3u    2.402209     3Au     2.402209
      11B2u    2.412189    11B1u    2.412189     4Au     2.419609
      11B3u    2.419609    12B1u    2.424106    12B2u    2.424106
      13B1u    2.424481    13B2u    2.424481    12B3u    2.425614
       5Au     2.446685    13B3u    2.446685    14B1u    2.460407
      14B2u    2.460407    14B3u    2.465060    16Ag     2.558311
       6B3g    2.558311    17Ag     2.563400     7B3g    2.563400
       6B2g    2.575704     6B1g    2.575704     7B2g    2.581015
       7B1g    2.581015    18Ag     2.585991    19Ag     2.591072
       8B3g    2.591072     8B2g    2.605065     8B1g    2.605065
      20Ag     2.611487    15B1u    3.891166    15B2u    3.891166
      15B3u    3.922456    16B1u    4.847753    16B2u    4.847753
       6Au     4.867025    16B3u    4.867025    17B2u    4.878915
      17B1u    4.878915    17B3u    4.882941    21Ag     5.028461
       9B3g    5.159614    22Ag     5.159614     9B1g    5.179955
       9B2g    5.179955    23Ag     5.189369    18B1u    5.456485
      18B2u    5.456485     7Au     5.471942    18B3u    5.471942
      19B1u    5.484207    19B2u    5.484207     8Au     5.493102
      19B3u    5.493102    20B2u    5.498495    20B1u    5.498495
      20B3u    5.500302    24Ag     5.545116    10B3g    5.545116
      10B2g    5.562524    10B1g    5.562524    11B3g    5.575382
      25Ag     5.575382    11B1g    5.583292    11B2g    5.583292
      26Ag     5.585965    27Ag    13.389513    12B3g   13.389513
      12B1g   13.401891    12B2g   13.401891    28Ag    13.406133
      21B1u   16.893461    21B2u   16.893461    21B3u   16.910283
      29Ag    45.041635

    Beta Occupied:

       1Ag   -79.688517     2Ag    -7.228317     1B3u   -5.120416
       1B2u   -5.110373     1B1u   -5.110373     3Ag    -0.351373
       2B3u   -0.024781

    Beta Virtual:

       2B1u    0.180654     2B2u    0.180654     3B3u    0.205754
       4Ag     0.219825     3B2u    0.290552     3B1u    0.290552
       5Ag     0.322431     1B2g    0.322679     1B1g    0.322679
       1B3g    0.323733     6Ag     0.323733     4B3u    0.538349
       4B2u    0.553996     4B1u    0.553996     1Au     0.558299
       5B3u    0.558299     5B1u    0.558307     5B2u    0.558307
       6B3u    0.562676     6B2u    0.569080     6B1u    0.569080
       7Ag     0.581757     8Ag     0.671272     2B1g    0.674938
       2B2g    0.674938     2B3g    0.688254     9Ag     0.688254
      10Ag     1.120376     3B3g    1.120376     3B2g    1.127055
       3B1g    1.127055     4B3g    1.131732    11Ag     1.131732
       4B2g    1.134469     4B1g    1.134469    12Ag     1.135368
       7B1u    1.239120     7B2u    1.239120     2Au     1.244087
       7B3u    1.244087     8B1u    1.246652     8B2u    1.246652
       8B3u    1.247440    13Ag     1.270866     5B1g    1.271638
       5B2g    1.271638     5B3g    1.274386    14Ag     1.274386
       9B3u    1.400678     9B2u    1.407285     9B1u    1.407285
      15Ag     1.611881    10B1u    2.410946    10B2u    2.410946
      10B3u    2.419416     3Au     2.419416    11B2u    2.426078
      11B1u    2.426078     4Au     2.430875    11B3u    2.430875
      12B1u    2.433768    12B2u    2.433768    12B3u    2.434735
      13B1u    2.475448    13B2u    2.475448     5Au     2.482545
      13B3u    2.482545    14B2u    2.486738    14B1u    2.486738
      14B3u    2.488123    16Ag     2.594973     6B3g    2.594973
       7B3g    2.595747    17Ag     2.595747     6B1g    2.603303
       6B2g    2.603303     7B2g    2.603760     7B1g    2.603760
      18Ag     2.605398     8B3g    2.611890    19Ag     2.611890
       8B1g    2.618858     8B2g    2.618858    20Ag     2.621656
      15B2u    3.929559    15B1u    3.929559    15B3u    3.934127
      16B1u    4.877587    16B2u    4.877587     6Au     4.888054
      16B3u    4.888054    17B2u    4.894453    17B1u    4.894453
      17B3u    4.896606    21Ag     5.051630     9B3g    5.179419
      22Ag     5.179419     9B1g    5.192010     9B2g    5.192010
      23Ag     5.197168    18B1u    5.486308    18B2u    5.486308
       7Au     5.496143    18B3u    5.496143    19B1u    5.503914
      19B2u    5.503914     8Au     5.509529    19B3u    5.509529
      20B2u    5.512924    20B1u    5.512924    20B3u    5.514060
      24Ag     5.577987    10B3g    5.577987    10B2g    5.587873
      10B1g    5.587873    11B3g    5.595093    25Ag     5.595093
      11B1g    5.599493    11B2g    5.599493    26Ag     5.600971
      12B3g   13.406280    27Ag    13.406280    12B1g   13.412368
      12B2g   13.412368    28Ag    13.414469    21B1u   16.917268
      21B2u   16.917268    21B3u   16.917930    29Ag    45.051962

    Final Occupation by Irrep:
             Ag   B1g   B2g   B3g    Au   B1u   B2u   B3u
    DOCC [     3,    0,    0,    0,    0,    1,    1,    2 ]
    SOCC [     0,    0,    0,    0,    0,    1,    1,    0 ]

  Energy converged.

  @UHF Final Energy:  -340.70728515616872

   => Energetics <=

    Nuclear Repulsion Energy =              0.0000000000000000
    One-Electron Energy =                -475.5752853516809751
    Two-Electron Energy =                 134.8680001955122520
    Total Energy =                       -340.7072851561687230

  UHF NO Occupations:
  HONO-2 :    2B3u 1.9915131
  HONO-1 :    2B1u 1.0000000
  HONO-0 :    2B2u 1.0000000
  LUNO+0 :    3B3u 0.0084869
  LUNO+1 :    4 Ag 0.0058767
  LUNO+2 :    3B1u 0.0000038
  LUNO+3 :    3B2u 0.0000038

Properties will be evaluated at   0.000000,   0.000000,   0.000000 Bohr

Properties computed using the SCF density matrix

  Nuclear Dipole Moment: (a.u.)
     X:     0.0000      Y:     0.0000      Z:     0.0000

  Electronic Dipole Moment: (a.u.)
     X:     0.0000      Y:     0.0000      Z:     0.0000

  Dipole Moment: (a.u.)
     X:     0.0000      Y:     0.0000      Z:     0.0000     Total:     0.0000

  Dipole Moment: (Debye)
     X:     0.0000      Y:     0.0000      Z:     0.0000     Total:     0.0000

*** tstop() called on cqc05 at Fri Aug 21 06:48:54 2020
Module time:
	user time   =       9.00 seconds =       0.15 minutes
	system time =       0.30 seconds =       0.01 minutes
	total time  =          8 seconds =       0.13 minutes
Total time:
	user time   =       9.00 seconds =       0.15 minutes
	system time =       0.30 seconds =       0.01 minutes
	total time  =          8 seconds =       0.13 minutes

*** tstart() called on cqc05
*** at Fri Aug 21 06:48:54 2020

	Wfn Parameters:
	--------------------
	Wavefunction         = CCSD
	Number of irreps     = 8
	Number of MOs        = 136
	Number of active MOs = 131
	AO-Basis             = NONE
	Semicanonical        = false
	Reference            = UHF
	Print Level          = 1

	IRREP	# MOs	# FZDC	# DOCC	# SOCC	# VIRT	# FZVR
	-----	-----	------	------	------	------	------
	 Ag	   29	    2	    1	    0	    26	    0
	 B1g	   12	    0	    0	    0	    12	    0
	 B2g	   12	    0	    0	    0	    12	    0
	 B3g	   12	    0	    0	    0	    12	    0
	 Au	   8	    0	    0	    0	    8	    0
	 B1u	   21	    1	    0	    1	    19	    0
	 B2u	   21	    1	    0	    1	    19	    0
	 B3u	   21	    1	    1	    0	    19	    0
	Transforming integrals...
	IWL integrals will be deleted.
	(OO|OO)...
	Presorting SO-basis two-electron integrals.
	Sorting File: SO Ints (nn|nn) nbuckets = 1
	Transforming the one-electron integrals and constructing Fock matrices
	Starting AA/AB first half-transformation.
	Sorting AA/AB half-transformed integrals.
	Starting BB first half-transformation.
	Sorting BB half-transformed integrals.
	First half integral transformation complete.
	Starting AA second half-transformation.
	Starting AB second half-transformation.
	Starting BB second half-transformation.
	Two-electron integral transformation complete.
	(OO|OV)...
	Starting AA second half-transformation.
	Starting AB second half-transformation.
	Starting BB second half-transformation.
	Two-electron integral transformation complete.
	(OO|VV)...
	Starting AA second half-transformation.
	Starting AB second half-transformation.
	Starting BB second half-transformation.
	Two-electron integral transformation complete.
	(OV|OO)...
	Starting AA/AB first half-transformation.
	Sorting AA/AB half-transformed integrals.
	Starting BB first half-transformation.
	Sorting BB half-transformed integrals.
	First half integral transformation complete.
	Starting AA second half-transformation.
	Starting AB second half-transformation.
	Starting BB second half-transformation.
	Two-electron integral transformation complete.
	(OV|OV)...
	Starting AA second half-transformation.
	Starting AB second half-transformation.
	Starting BB second half-transformation.
	Two-electron integral transformation complete.
	(OV|VV)...
	Starting AA second half-transformation.
	Starting AB second half-transformation.
	Starting BB second half-transformation.
	Two-electron integral transformation complete.
	(VV|OO)...
	Starting AA/AB first half-transformation.
	Sorting AA/AB half-transformed integrals.
	Starting BB first half-transformation.
	Sorting BB half-transformed integrals.
	First half integral transformation complete.
	Starting AA second half-transformation.
	Starting AB second half-transformation.
	Starting BB second half-transformation.
	Two-electron integral transformation complete.
	(VV|OV)...
	Starting AA second half-transformation.
	Starting AB second half-transformation.
	Starting BB second half-transformation.
	Two-electron integral transformation complete.
	(VV|VV)...
	Starting AA second half-transformation.
	Starting AB second half-transformation.
	Starting BB second half-transformation.
	Two-electron integral transformation complete.
	Frozen core energy     =   -334.36266962106907

	Size of irrep 0 of <AB|CD> integrals:      1.132 (MW) /      9.057 (MB)
	Size of irrep 1 of <AB|CD> integrals:      0.939 (MW) /      7.512 (MB)
	Size of irrep 2 of <AB|CD> integrals:      0.939 (MW) /      7.512 (MB)
	Size of irrep 3 of <AB|CD> integrals:      0.939 (MW) /      7.512 (MB)
	Size of irrep 4 of <AB|CD> integrals:      0.796 (MW) /      6.365 (MB)
	Size of irrep 5 of <AB|CD> integrals:      1.094 (MW) /      8.753 (MB)
	Size of irrep 6 of <AB|CD> integrals:      1.094 (MW) /      8.753 (MB)
	Size of irrep 7 of <AB|CD> integrals:      1.094 (MW) /      8.753 (MB)
	Total:                                     8.027 (MW) /     64.216 (MB)

	Size of irrep 0 of <ab|cd> integrals:      1.214 (MW) /      9.715 (MB)
	Size of irrep 1 of <ab|cd> integrals:      0.992 (MW) /      7.936 (MB)
	Size of irrep 2 of <ab|cd> integrals:      0.992 (MW) /      7.936 (MB)
	Size of irrep 3 of <ab|cd> integrals:      1.016 (MW) /      8.129 (MB)
	Size of irrep 4 of <ab|cd> integrals:      0.839 (MW) /      6.712 (MB)
	Size of irrep 5 of <ab|cd> integrals:      1.175 (MW) /      9.400 (MB)
	Size of irrep 6 of <ab|cd> integrals:      1.175 (MW) /      9.400 (MB)
	Size of irrep 7 of <ab|cd> integrals:      1.145 (MW) /      9.159 (MB)
	Total:                                     8.549 (MW) /     68.389 (MB)

	Size of irrep 0 of <Ab|Cd> integrals:      5.258 (MW) /     42.063 (MB)
	Size of irrep 1 of <Ab|Cd> integrals:      3.861 (MW) /     30.890 (MB)
	Size of irrep 2 of <Ab|Cd> integrals:      3.861 (MW) /     30.890 (MB)
	Size of irrep 3 of <Ab|Cd> integrals:      3.905 (MW) /     31.237 (MB)
	Size of irrep 4 of <Ab|Cd> integrals:      3.269 (MW) /     26.151 (MB)
	Size of irrep 5 of <Ab|Cd> integrals:      4.537 (MW) /     36.295 (MB)
	Size of irrep 6 of <Ab|Cd> integrals:      4.537 (MW) /     36.295 (MB)
	Size of irrep 7 of <Ab|Cd> integrals:      4.477 (MW) /     35.820 (MB)
	Total:                                    33.705 (MW) /    269.640 (MB)

	Size of irrep 0 of <IA|BC> integrals:      0.187 (MW) /      1.497 (MB)
	Size of irrep 1 of <IA|BC> integrals:      0.112 (MW) /      0.899 (MB)
	Size of irrep 2 of <IA|BC> integrals:      0.112 (MW) /      0.899 (MB)
	Size of irrep 3 of <IA|BC> integrals:      0.112 (MW) /      0.899 (MB)
	Size of irrep 4 of <IA|BC> integrals:      0.078 (MW) /      0.628 (MB)
	Size of irrep 5 of <IA|BC> integrals:      0.144 (MW) /      1.155 (MB)
	Size of irrep 6 of <IA|BC> integrals:      0.144 (MW) /      1.155 (MB)
	Size of irrep 7 of <IA|BC> integrals:      0.144 (MW) /      1.155 (MB)
	Total:                                     1.036 (MW) /      8.287 (MB)

	Size of irrep 0 of <ia|bc> integrals:      0.105 (MW) /      0.840 (MB)
	Size of irrep 1 of <ia|bc> integrals:      0.064 (MW) /      0.510 (MB)
	Size of irrep 2 of <ia|bc> integrals:      0.064 (MW) /      0.510 (MB)
	Size of irrep 3 of <ia|bc> integrals:      0.040 (MW) /      0.323 (MB)
	Size of irrep 4 of <ia|bc> integrals:      0.037 (MW) /      0.293 (MB)
	Size of irrep 5 of <ia|bc> integrals:      0.069 (MW) /      0.555 (MB)
	Size of irrep 6 of <ia|bc> integrals:      0.069 (MW) /      0.555 (MB)
	Size of irrep 7 of <ia|bc> integrals:      0.096 (MW) /      0.770 (MB)
	Total:                                     0.544 (MW) /      4.356 (MB)

	Size of irrep 0 of <Ia|Bc> integrals:      0.195 (MW) /      1.559 (MB)
	Size of irrep 1 of <Ia|Bc> integrals:      0.116 (MW) /      0.927 (MB)
	Size of irrep 2 of <Ia|Bc> integrals:      0.116 (MW) /      0.927 (MB)
	Size of irrep 3 of <Ia|Bc> integrals:      0.119 (MW) /      0.948 (MB)
	Size of irrep 4 of <Ia|Bc> integrals:      0.080 (MW) /      0.636 (MB)
	Size of irrep 5 of <Ia|Bc> integrals:      0.149 (MW) /      1.193 (MB)
	Size of irrep 6 of <Ia|Bc> integrals:      0.149 (MW) /      1.193 (MB)
	Size of irrep 7 of <Ia|Bc> integrals:      0.146 (MW) /      1.168 (MB)
	Total:                                     1.069 (MW) /      8.553 (MB)

	Size of irrep 0 of <iA|bC> integrals:      0.103 (MW) /      0.825 (MB)
	Size of irrep 1 of <iA|bC> integrals:      0.061 (MW) /      0.487 (MB)
	Size of irrep 2 of <iA|bC> integrals:      0.061 (MW) /      0.487 (MB)
	Size of irrep 3 of <iA|bC> integrals:      0.040 (MW) /      0.316 (MB)
	Size of irrep 4 of <iA|bC> integrals:      0.036 (MW) /      0.289 (MB)
	Size of irrep 5 of <iA|bC> integrals:      0.066 (MW) /      0.528 (MB)
	Size of irrep 6 of <iA|bC> integrals:      0.066 (MW) /      0.528 (MB)
	Size of irrep 7 of <iA|bC> integrals:      0.095 (MW) /      0.762 (MB)
	Total:                                     0.528 (MW) /      4.224 (MB)

	Size of irrep 0 of tIjAb amplitudes:       0.005 (MW) /      0.037 (MB)
	Size of irrep 1 of tIjAb amplitudes:       0.002 (MW) /      0.016 (MB)
	Size of irrep 2 of tIjAb amplitudes:       0.002 (MW) /      0.016 (MB)
	Size of irrep 3 of tIjAb amplitudes:       0.000 (MW) /      0.000 (MB)
	Size of irrep 4 of tIjAb amplitudes:       0.000 (MW) /      0.000 (MB)
	Size of irrep 5 of tIjAb amplitudes:       0.002 (MW) /      0.017 (MB)
	Size of irrep 6 of tIjAb amplitudes:       0.002 (MW) /      0.017 (MB)
	Size of irrep 7 of tIjAb amplitudes:       0.004 (MW) /      0.034 (MB)
	Total:                                     0.017 (MW) /      0.136 (MB)

	Nuclear Rep. energy          =      0.00000000000000
	SCF energy                   =   -340.70728515616872
	One-electron energy          =    -11.46779650877493
	Two-electron (AA) energy     =      1.88335509967754
	Two-electron (BB) energy     =      0.28350651554181
	Two-electron (AB) energy     =      2.95631935845694
	Two-electron energy          =      5.12318097367630
	Reference energy             =   -340.70728515616770

*** tstop() called on cqc05 at Fri Aug 21 06:48:59 2020
Module time:
	user time   =       2.99 seconds =       0.05 minutes
	system time =       1.41 seconds =       0.02 minutes
	total time  =          5 seconds =       0.08 minutes
Total time:
	user time   =      11.99 seconds =       0.20 minutes
	system time =       1.71 seconds =       0.03 minutes
	total time  =         13 seconds =       0.22 minutes

*** tstart() called on cqc05
*** at Fri Aug 21 06:48:59 2020

            **************************
            *                        *
            *        CCENERGY        *
            *                        *
            **************************

    Nuclear Rep. energy (wfn)     =    0.000000000000000
    SCF energy          (wfn)     = -340.707285156168723
    Reference energy    (file100) = -340.707285156167700

    Input parameters:
    -----------------
    Wave function   =     CCSD
    Reference wfn   =     UHF
    Brueckner       =     No
    Memory (Mbytes) =     250000.0
    Maxiter         =     50
    R_Convergence   =     1.0e-07
    E_Convergence   =     1.0e-06
    Restart         =     Yes
    DIIS            =     Yes
    AO Basis        =     NONE
    ABCD            =     NEW
    Cache Level     =     2
    Cache Type      =     LRU
    Print Level     =     1
    Num. of threads =     4
    # Amps to Print =     10
    Print MP2 Amps? =     No
    Analyze T2 Amps =     No
    Print Pair Ener =     No
    Local CC        =     No
    SCS-MP2         =     False
    SCSN-MP2        =     False
    SCS-CCSD        =     False

MP2 correlation energy -0.1251110452290146
                Solving CC Amplitude Equations
                ------------------------------
  Iter             Energy              RMS        T1Diag      D1Diag    New D1Diag    D2Diag
  ----     ---------------------    ---------   ----------  ----------  ----------   --------
     0        -0.125111045229015    0.000e+00    0.000000    0.000000    0.000000    0.000000
     1        -0.136275708831543    5.131e-02    0.011592    0.000000    0.000000    0.000000
     2        -0.141224791986357    1.952e-02    0.017120    0.000000    0.000000    0.000000

      * MP2 total energy                      = -340.832396201396705
      * CCSD total energy                     = -340.848986946124398
*** Psi4 exiting successfully. Buy a developer a beer!
