                               Psi4 1.4a3.dev88

  ==> Input File <==

--------------------------------------------------------------------------
# Any line starting with the # character is a comment line
memory 250000 mb
molecule molecule{
0 1
P          0.0000000000        0.0000000000        0.9601625849
P          0.0000000000        0.0000000000       -0.9601625849
}

set {
  reference rhf
  basis aug-cc-pV(t+d)Z
  scf_type OUT_OF_CORE
  freeze_core true
}

energy('ccsd(t)')
--------------------------------------------------------------------------

    Molecular point group: d2h

    Geometry (in Angstrom), charge = 0, multiplicity = 1:

       Center              X                  Y                   Z               Mass
    ------------   -----------------  -----------------  -----------------  -----------------
         P            0.000000000000     0.000000000000     0.960162584900    30.973761998420
         P            0.000000000000     0.000000000000    -0.960162584900    30.973761998420

  Charge       = 0
  Multiplicity = 1
  Basis Set: AUG-CC-PV(T+D)Z
    Blend: AUG-CC-PV(T+D)Z

    Orbital Energies [Eh]
    ---------------------

    Doubly Occupied:

       1Ag   -79.979998     1B1u  -79.979992     2Ag    -7.520980
       2B1u   -7.520353     3Ag    -5.412598     1B3u   -5.411989
       1B2u   -5.411989     1B2g   -5.411767     1B3g   -5.411767
       3B1u   -5.410538     4Ag    -0.895224     4B1u   -0.611045
       5Ag    -0.408547     2B2u   -0.367731     2B3u   -0.367731

  @RHF Final Energy:  -681.49168544785960

   => Energetics <=

    Nuclear Repulsion Energy =             62.0024536850446708
    One-Electron Energy =               -1066.7437799250496937
    Two-Electron Energy =                 323.2496407921454420
    Total Energy =                       -681.4916854478595951

  Dipole Moment: [D]
     X:     0.0000      Y:     0.0000      Z:     0.0000     Total:     0.0000

      * MP2 total energy                      = -681.777773494926350
      * CCSD total energy                     = -681.792979573888715
      * CCSD(T) total energy                  = -681.816025778002199
*** Psi4 exiting successfully. Buy a developer a beer!
