                               Psi4 1.4a3.dev88

  ==> Input File <==

--------------------------------------------------------------------------
# Any line starting with the # character is a comment line
memory 250000 mb
molecule molecule{
0 1
P          0.0000000000        0.0000000000        0.9601625849
P          0.0000000000        0.0000000000       -0.9601625849
}

set {
  reference rhf
  basis aug-cc-pV(5+d)Z
  scf_type OUT_OF_CORE
  freeze_core true
}

energy('ccsd(t)')
--------------------------------------------------------------------------

    Molecular point group: d2h

    Geometry (in Angstrom), charge = 0, multiplicity = 1:

       Center              X                  Y                   Z               Mass
    ------------   -----------------  -----------------  -----------------  -----------------
         P            0.000000000000     0.000000000000     0.960162584900    30.973761998420
         P            0.000000000000     0.000000000000    -0.960162584900    30.973761998420

  Charge       = 0
  Multiplicity = 1
  Basis Set: AUG-CC-PV(5+D)Z
    Blend: AUG-CC-PV(5+D)Z

    Orbital Energies [Eh]
    ---------------------

    Doubly Occupied:

       1Ag   -79.978759     1B1u  -79.978753     2Ag    -7.520116
       2B1u   -7.519489     3Ag    -5.412034     1B3u   -5.411343
       1B2u   -5.411343     1B2g   -5.411120     1B3g   -5.411120
       3B1u   -5.409969     4Ag    -0.894601     4B1u   -0.610770
       5Ag    -0.408323     2B3u   -0.367639     2B2u   -0.367639

  @RHF Final Energy:  -681.49752022462860

   => Energetics <=

    Nuclear Repulsion Energy =             62.0024536850446708
    One-Electron Energy =               -1066.7739140423607296
    Two-Electron Energy =                 323.2739401326875850
    Total Energy =                       -681.4975202246284880

  Dipole Moment: [D]
     X:     0.0000      Y:     0.0000      Z:     0.0000     Total:     0.0000

      * MP2 total energy                      = -681.810255518373197
      * CCSD total energy                     = -681.817474452359761
      * CCSD(T) total energy                  = -681.842712479981856
*** Psi4 exiting successfully. Buy a developer a beer!
