                               Psi4 1.4a3.dev88

  ==> Input File <==

--------------------------------------------------------------------------
# Any line starting with the # character is a comment line
memory 250000 mb
molecule molecule{
0 1
P          0.0000000000        0.0000000000        0.9601625849
P          0.0000000000        0.0000000000       -0.9601625849
}

set {
  reference rhf
  basis aug-cc-pV(d+d)Z
  scf_type OUT_OF_CORE
  freeze_core true
}

energy('ccsd(t)')
--------------------------------------------------------------------------

    Molecular point group: d2h

    Geometry (in Angstrom), charge = 0, multiplicity = 1:

       Center              X                  Y                   Z               Mass
    ------------   -----------------  -----------------  -----------------  -----------------
         P            0.000000000000     0.000000000000     0.960162584900    30.973761998420
         P            0.000000000000     0.000000000000    -0.960162584900    30.973761998420

  Charge       = 0
  Multiplicity = 1
  Basis Set: AUG-CC-PV(D+D)Z
    Blend: AUG-CC-PV(D+D)Z

    Orbital Energies [Eh]
    ---------------------

    Doubly Occupied:

       1Ag   -79.985570     1B1u  -79.985566     2Ag    -7.525467
       2B1u   -7.524894     3Ag    -5.417655     1B3u   -5.416659
       1B2u   -5.416659     1B2g   -5.416436     1B3g   -5.416436
       3B1u   -5.415632     4Ag    -0.899397     4B1u   -0.612409
       5Ag    -0.410206     2B3u   -0.368486     2B2u   -0.368486

  @RHF Final Energy:  -681.47434663572926

   => Energetics <=

    Nuclear Repulsion Energy =             62.0024536850446708
    One-Electron Energy =               -1066.5936845711476053
    Two-Electron Energy =                 323.1168842503736869
    Total Energy =                       -681.4743466357292618

  Dipole Moment: [D]
     X:     0.0000      Y:     0.0000      Z:     0.0000     Total:     0.0000

      * MP2 total energy                      = -681.713805023907753
      * CCSD total energy                     = -681.732043922022399
      * CCSD(T) total energy                  = -681.748860861080288
*** Psi4 exiting successfully. Buy a developer a beer!
