                               Psi4 1.4a3.dev88

  ==> Input File <==

--------------------------------------------------------------------------
# Any line starting with the # character is a comment line
memory 250000 mb
molecule molecule{
0 1
P          0.0000000000        0.0000000000        0.9601625849
P          0.0000000000        0.0000000000       -0.9601625849
}

set {
  reference rhf
  basis aug-cc-pV(6+d)Z
  scf_type OUT_OF_CORE
  freeze_core true
}

energy('ccsd(t)')
--------------------------------------------------------------------------

    Molecular point group: d2h

    Geometry (in Angstrom), charge = 0, multiplicity = 1:

       Center              X                  Y                   Z               Mass
    ------------   -----------------  -----------------  -----------------  -----------------
         P            0.000000000000     0.000000000000     0.960162584900    30.973761998420
         P            0.000000000000     0.000000000000    -0.960162584900    30.973761998420

  Charge       = 0
  Multiplicity = 1
  Basis Set: AUG-CC-PV(6+D)Z
    Blend: AUG-CC-PV(6+D)Z

    Orbital Energies [Eh]
    ---------------------

    Doubly Occupied:

       1Ag   -79.978738     1B1u  -79.978732     2Ag    -7.520033
       2B1u   -7.519405     3Ag    -5.412030     1B3u   -5.411256
       1B2u   -5.411256     1B2g   -5.411033     1B3g   -5.411033
       3B1u   -5.409963     4Ag    -0.894544     4B1u   -0.610744
       5Ag    -0.408344     2B3u   -0.367610     2B2u   -0.367610

  @RHF Final Energy:  -681.49780269119049

   => Energetics <=

    Nuclear Repulsion Energy =             62.0024536850446708
    One-Electron Energy =               -1066.7758548828714993
    Two-Electron Energy =                 323.2755985066363564
    Total Energy =                       -681.4978026911904863

  Dipole Moment: [D]
     X:     0.0000      Y:     0.0000      Z:     0.0000     Total:     0.0000

      * MP2 total energy                      = -681.814382458091700
      * CCSD total energy                     = -681.819734388415668
      * CCSD(T) total energy                  = -681.845200514505109
*** Psi4 exiting successfully. Buy a developer a beer!
