                               Psi4 1.4a3.dev88

  ==> Input File <==

--------------------------------------------------------------------------
# Any line starting with the # character is a comment line
memory 250000 mb
molecule molecule{
0 2
Cl          0.0000000000        0.0000000000        0.0000000000
}

set {
  reference uhf
  basis aug-cc-pV(t+d)Z
  scf_type OUT_OF_CORE
  freeze_core true
}

energy('ccsd(t)')
--------------------------------------------------------------------------

    Molecular point group: d2h
    Geometry (in Angstrom), charge = 0, multiplicity = 2:

       Center              X                  Y                   Z               Mass
    ------------   -----------------  -----------------  -----------------  -----------------
         CL           0.000000000000     0.000000000000     0.000000000000    34.968852682000

  Charge       = 0
  Multiplicity = 2
  Basis Set: AUG-CC-PV(T+D)Z
    Blend: AUG-CC-PV(T+D)Z

    Orbital Energies [Eh]
    ---------------------

    Alpha Occupied:

       1Ag  -104.890652     2Ag   -10.613159     1B3u   -8.098401
       1B1u   -8.074029     1B2u   -8.074029     3Ag    -1.136482
       2B3u   -0.581952     2B1u   -0.502757     2B2u   -0.502757

    Alpha Virtual:

       3B3u    0.106257     3B1u    0.114355     3B2u    0.114355
       4Ag     0.122282     5Ag     0.306228     1B1g    0.312177
       1B2g    0.312177     1B3g    0.332807     6Ag     0.332807
       4B3u    0.585711     4B1u    0.618582     4B2u    0.618582
       7Ag     0.800090     2B2g    0.811480     2B1g    0.811480
       8Ag     0.851301     2B3g    0.851301     9Ag     0.888990
       5B3u    1.141573     5B2u    1.145699     5B1u    1.145699
       1Au     1.158253     6B3u    1.158253     6B1u    1.180038
       6B2u    1.180038    10Ag     2.247125     3B2g    2.258488
       3B1g    2.258488    11Ag     2.295686     3B3g    2.295686
       7B3u    2.588068     7B1u    2.640250     7B2u    2.640250
       8B3u    2.977440     8B1u    2.984293     8B2u    2.984293
       2Au     3.005145     9B3u    3.005145     9B2u    3.041100
       9B1u    3.041100    12Ag     5.002680    13Ag     8.722492
       4B2g    8.731117     4B1g    8.731117     4B3g    8.757635
      14Ag     8.757635

    Beta Occupied:

       1Ag  -104.879542     2Ag   -10.601884     1B2u   -8.068097
       1B1u   -8.068097     1B3u   -8.049665     3Ag    -1.014928
       2B2u   -0.481098     2B1u   -0.481098

    Beta Virtual:

       2B3u   -0.041355     3B2u    0.115187     3B1u    0.115187
       3B3u    0.127214     4Ag     0.128043     5Ag     0.332731
       1B3g    0.332731     1B2g    0.341638     1B1g    0.341638
       6Ag     0.345174     4B2u    0.624347     4B1u    0.624347
       4B3u    0.653055     7Ag     0.855130     2B3g    0.855130
       2B1g    0.877018     2B2g    0.877018     8Ag     0.884971
       9Ag     0.912470     5B3u    1.167431     5B1u    1.168791
       5B2u    1.168791     6B3u    1.172826     1Au     1.172826
       6B1u    1.179327     6B2u    1.179327    10Ag     2.284861
       3B1g    2.288345     3B2g    2.288345    11Ag     2.298510
       3B3g    2.298510     7B2u    2.648744     7B1u    2.648744
       7B3u    2.663905     8B3u    3.027313     8B2u    3.029039
       8B1u    3.029039     9B3u    3.034118     2Au     3.034118
       9B1u    3.042278     9B2u    3.042278    12Ag     5.023006
      13Ag     8.739483     4B1g    8.744452     4B2g    8.744452
       4B3g    8.759436    14Ag     8.759436

    Final Occupation by Irrep:
             Ag   B1g   B2g   B3g    Au   B1u   B2u   B3u
    DOCC [     3,    0,    0,    0,    0,    2,    2,    1 ]
    SOCC [     0,    0,    0,    0,    0,    0,    0,    1 ]

  @UHF Final Energy:  -459.48608912099849

   => Energetics <=

    Nuclear Repulsion Energy =              0.0000000000000000
    One-Electron Energy =                -634.8535515969444987
    Two-Electron Energy =                 175.3674624759460130
    Total Energy =                       -459.4860891209984857

  UHF NO Occupations:
  HONO-2 :    2B1u 1.9996440
  HONO-1 :    3 Ag 1.9954137
  HONO-0 :    2B3u 1.0000000
  LUNO+0 :    4 Ag 0.0045863
  LUNO+1 :    3B1u 0.0003560
  LUNO+2 :    3B2u 0.0003560
  LUNO+3 :    3B3u 0.0000026

Computation Completed

Properties will be evaluated at   0.000000,   0.000000,   0.000000 [a0]

Properties computed using the SCF density matrix

  Nuclear Dipole Moment: [e a0]
     X:     0.0000      Y:     0.0000      Z:     0.0000

  Electronic Dipole Moment: [e a0]
     X:     0.0000      Y:     0.0000      Z:     0.0000

  Dipole Moment: [e a0]
     X:     0.0000      Y:     0.0000      Z:     0.0000     Total:     0.0000

  Dipole Moment: [D]
     X:     0.0000      Y:     0.0000      Z:     0.0000     Total:     0.0000

*** tstop() called on n412-040.vsc4.prov at Tue Jan 26 18:04:38 2021
Module time:
	user time   =      12.27 seconds =       0.20 minutes
	system time =       1.08 seconds =       0.02 minutes
	total time  =          3 seconds =       0.05 minutes
Total time:
	user time   =      12.27 seconds =       0.20 minutes
	system time =       1.08 seconds =       0.02 minutes
	total time  =          3 seconds =       0.05 minutes

*** tstart() called on n412-040.vsc4.prov
*** at Tue Jan 26 18:04:38 2021

	Wfn Parameters:
	--------------------
	Wavefunction         = CCSD_T
	Number of irreps     = 8
	Number of MOs        = 55
	Number of active MOs = 50
	AO-Basis             = NONE
	Semicanonical        = false
	Reference            = UHF
	Print Level          = 1

	IRREP	# MOs	# FZDC	# DOCC	# SOCC	# VIRT	# FZVR
	-----	-----	------	------	------	------	------
	 Ag	   14	    2	    1	    0	    11	    0
	 B1g	   4	    0	    0	    0	    4	    0
	 B2g	   4	    0	    0	    0	    4	    0
	 B3g	   4	    0	    0	    0	    4	    0
	 Au	   2	    0	    0	    0	    2	    0
	 B1u	   9	    1	    1	    0	    7	    0
	 B2u	   9	    1	    1	    0	    7	    0
	 B3u	   9	    1	    0	    1	    7	    0
	Transforming integrals...
	IWL integrals will be deleted.
	(OO|OO)...
	Presorting SO-basis two-electron integrals.
	Sorting File: SO Ints (nn|nn) nbuckets = 1
	Constructing frozen core operators
	Starting AA/AB first half-transformation.
	Sorting AA/AB half-transformed integrals.
	Starting BB first half-transformation.
	Sorting BB half-transformed integrals.
	First half integral transformation complete.
	Starting AA second half-transformation.
	Starting AB second half-transformation.
	Starting BB second half-transformation.
	Two-electron integral transformation complete.
	(OO|OV)...
	Starting AA second half-transformation.
	Starting AB second half-transformation.
	Starting BB second half-transformation.
	Two-electron integral transformation complete.
	(OO|VV)...
	Starting AA second half-transformation.
	Starting AB second half-transformation.
	Starting BB second half-transformation.
	Two-electron integral transformation complete.
	(OV|OO)...
	Starting AA/AB first half-transformation.
	Sorting AA/AB half-transformed integrals.
	Starting BB first half-transformation.
	Sorting BB half-transformed integrals.
	First half integral transformation complete.
	Starting AA second half-transformation.
	Starting AB second half-transformation.
	Starting BB second half-transformation.
	Two-electron integral transformation complete.
	(OV|OV)...
	Starting AA second half-transformation.
	Starting AB second half-transformation.
	Starting BB second half-transformation.
	Two-electron integral transformation complete.
	(OV|VV)...
	Starting AA second half-transformation.
	Starting AB second half-transformation.
	Starting BB second half-transformation.
	Two-electron integral transformation complete.
	(VV|OO)...
	Starting AA/AB first half-transformation.
	Sorting AA/AB half-transformed integrals.
	Starting BB first half-transformation.
	Sorting BB half-transformed integrals.
	First half integral transformation complete.
	Starting AA second half-transformation.
	Starting AB second half-transformation.
	Starting BB second half-transformation.
	Two-electron integral transformation complete.
	(VV|OV)...
	Starting AA second half-transformation.
	Starting AB second half-transformation.
	Starting BB second half-transformation.
	Two-electron integral transformation complete.
	(VV|VV)...
	Starting AA second half-transformation.
	Starting AB second half-transformation.
	Starting BB second half-transformation.
	Two-electron integral transformation complete.
	Frozen core energy     =   -444.74440681576442

	Size of irrep 0 of <AB|CD> integrals:      0.019 (MW) /      0.150 (MB)
	Size of irrep 1 of <AB|CD> integrals:      0.015 (MW) /      0.121 (MB)
	Size of irrep 2 of <AB|CD> integrals:      0.015 (MW) /      0.121 (MB)
	Size of irrep 3 of <AB|CD> integrals:      0.015 (MW) /      0.121 (MB)
	Size of irrep 4 of <AB|CD> integrals:      0.011 (MW) /      0.090 (MB)
	Size of irrep 5 of <AB|CD> integrals:      0.020 (MW) /      0.159 (MB)
	Size of irrep 6 of <AB|CD> integrals:      0.020 (MW) /      0.159 (MB)
	Size of irrep 7 of <AB|CD> integrals:      0.020 (MW) /      0.159 (MB)
	Total:                                     0.135 (MW) /      1.080 (MB)

	Size of irrep 0 of <ab|cd> integrals:      0.021 (MW) /      0.166 (MB)
	Size of irrep 1 of <ab|cd> integrals:      0.017 (MW) /      0.135 (MB)
	Size of irrep 2 of <ab|cd> integrals:      0.017 (MW) /      0.135 (MB)
	Size of irrep 3 of <ab|cd> integrals:      0.016 (MW) /      0.125 (MB)
	Size of irrep 4 of <ab|cd> integrals:      0.012 (MW) /      0.097 (MB)
	Size of irrep 5 of <ab|cd> integrals:      0.021 (MW) /      0.168 (MB)
	Size of irrep 6 of <ab|cd> integrals:      0.021 (MW) /      0.168 (MB)
	Size of irrep 7 of <ab|cd> integrals:      0.023 (MW) /      0.185 (MB)
	Total:                                     0.147 (MW) /      1.179 (MB)

	Size of irrep 0 of <Ab|Cd> integrals:      0.107 (MW) /      0.855 (MB)
	Size of irrep 1 of <Ab|Cd> integrals:      0.064 (MW) /      0.512 (MB)
	Size of irrep 2 of <Ab|Cd> integrals:      0.064 (MW) /      0.512 (MB)
	Size of irrep 3 of <Ab|Cd> integrals:      0.062 (MW) /      0.492 (MB)
	Size of irrep 4 of <Ab|Cd> integrals:      0.047 (MW) /      0.373 (MB)
	Size of irrep 5 of <Ab|Cd> integrals:      0.082 (MW) /      0.654 (MB)
	Size of irrep 6 of <Ab|Cd> integrals:      0.082 (MW) /      0.654 (MB)
	Size of irrep 7 of <Ab|Cd> integrals:      0.086 (MW) /      0.687 (MB)
	Total:                                     0.593 (MW) /      4.740 (MB)

	Size of irrep 0 of <IA|BC> integrals:      0.010 (MW) /      0.082 (MB)
	Size of irrep 1 of <IA|BC> integrals:      0.005 (MW) /      0.039 (MB)
	Size of irrep 2 of <IA|BC> integrals:      0.005 (MW) /      0.039 (MB)
	Size of irrep 3 of <IA|BC> integrals:      0.005 (MW) /      0.039 (MB)
	Size of irrep 4 of <IA|BC> integrals:      0.003 (MW) /      0.024 (MB)
	Size of irrep 5 of <IA|BC> integrals:      0.007 (MW) /      0.059 (MB)
	Size of irrep 6 of <IA|BC> integrals:      0.007 (MW) /      0.059 (MB)
	Size of irrep 7 of <IA|BC> integrals:      0.007 (MW) /      0.059 (MB)
	Total:                                     0.050 (MW) /      0.400 (MB)

	Size of irrep 0 of <ia|bc> integrals:      0.008 (MW) /      0.067 (MB)
	Size of irrep 1 of <ia|bc> integrals:      0.004 (MW) /      0.029 (MB)
	Size of irrep 2 of <ia|bc> integrals:      0.004 (MW) /      0.029 (MB)
	Size of irrep 3 of <ia|bc> integrals:      0.004 (MW) /      0.036 (MB)
	Size of irrep 4 of <ia|bc> integrals:      0.002 (MW) /      0.018 (MB)
	Size of irrep 5 of <ia|bc> integrals:      0.006 (MW) /      0.051 (MB)
	Size of irrep 6 of <ia|bc> integrals:      0.006 (MW) /      0.051 (MB)
	Size of irrep 7 of <ia|bc> integrals:      0.005 (MW) /      0.039 (MB)
	Total:                                     0.040 (MW) /      0.320 (MB)

	Size of irrep 0 of <Ia|Bc> integrals:      0.011 (MW) /      0.086 (MB)
	Size of irrep 1 of <Ia|Bc> integrals:      0.005 (MW) /      0.043 (MB)
	Size of irrep 2 of <Ia|Bc> integrals:      0.005 (MW) /      0.043 (MB)
	Size of irrep 3 of <Ia|Bc> integrals:      0.005 (MW) /      0.040 (MB)
	Size of irrep 4 of <Ia|Bc> integrals:      0.003 (MW) /      0.024 (MB)
	Size of irrep 5 of <Ia|Bc> integrals:      0.007 (MW) /      0.059 (MB)
	Size of irrep 6 of <Ia|Bc> integrals:      0.007 (MW) /      0.059 (MB)
	Size of irrep 7 of <Ia|Bc> integrals:      0.008 (MW) /      0.063 (MB)
	Total:                                     0.052 (MW) /      0.417 (MB)

	Size of irrep 0 of <iA|bC> integrals:      0.008 (MW) /      0.065 (MB)
	Size of irrep 1 of <iA|bC> integrals:      0.003 (MW) /      0.026 (MB)
	Size of irrep 2 of <iA|bC> integrals:      0.003 (MW) /      0.026 (MB)
	Size of irrep 3 of <iA|bC> integrals:      0.004 (MW) /      0.036 (MB)
	Size of irrep 4 of <iA|bC> integrals:      0.002 (MW) /      0.017 (MB)
	Size of irrep 5 of <iA|bC> integrals:      0.006 (MW) /      0.050 (MB)
	Size of irrep 6 of <iA|bC> integrals:      0.006 (MW) /      0.050 (MB)
	Size of irrep 7 of <iA|bC> integrals:      0.004 (MW) /      0.035 (MB)
	Total:                                     0.038 (MW) /      0.307 (MB)

	Size of irrep 0 of tIjAb amplitudes:       0.001 (MW) /      0.008 (MB)
	Size of irrep 1 of tIjAb amplitudes:       0.000 (MW) /      0.002 (MB)
	Size of irrep 2 of tIjAb amplitudes:       0.000 (MW) /      0.002 (MB)
	Size of irrep 3 of tIjAb amplitudes:       0.000 (MW) /      0.004 (MB)
	Size of irrep 4 of tIjAb amplitudes:       0.000 (MW) /      0.000 (MB)
	Size of irrep 5 of tIjAb amplitudes:       0.001 (MW) /      0.005 (MB)
	Size of irrep 6 of tIjAb amplitudes:       0.001 (MW) /      0.005 (MB)
	Size of irrep 7 of tIjAb amplitudes:       0.000 (MW) /      0.002 (MB)
	Total:                                     0.003 (MW) /      0.027 (MB)

	Nuclear Rep. energy          =      0.00000000000000
	SCF energy                   =   -459.48608912099849
	One-electron energy          =    -24.78229249504757
	Two-electron (AA) energy     =      2.59507314956591
	Two-electron (BB) energy     =      1.26042710473599
	Two-electron (AB) energy     =      6.18510993551138
	Two-electron energy          =     10.04061018981328
	Reference energy             =   -459.48608912099871

*** tstop() called on n412-040.vsc4.prov at Tue Jan 26 18:04:40 2021
Module time:
	user time   =       0.13 seconds =       0.00 minutes
	system time =       0.27 seconds =       0.00 minutes
	total time  =          2 seconds =       0.03 minutes
Total time:
	user time   =      12.40 seconds =       0.21 minutes
	system time =       1.35 seconds =       0.02 minutes
	total time  =          5 seconds =       0.08 minutes
            **************************
            *                        *
            *        CCENERGY        *
            *                        *
            **************************

    Nuclear Rep. energy (wfn)     =    0.000000000000000
    SCF energy          (wfn)     = -459.486089120998486
    Reference energy    (file100) = -459.486089120998713

    Input parameters:
    -----------------
    Wave function   =     CCSD_T
    Reference wfn   =     UHF
    Brueckner       =     No
    Memory (Mbytes) =     250000.0
    Maxiter         =     50
    R_Convergence   =     1.0e-07
    E_Convergence   =     1.0e-06
    Restart         =     Yes
    DIIS            =     Yes
    AO Basis        =     NONE
    ABCD            =     NEW
    Cache Level     =     2
    Cache Type      =     LRU
    Print Level     =     1
    Num. of threads =     48
    # Amps to Print =     10
    Print MP2 Amps? =     No
    Analyze T2 Amps =     No
    Print Pair Ener =     No
    Local CC        =     No
    SCS-MP2         =     False
    SCSN-MP2        =     False
    SCS-CCSD        =     False

MP2 correlation energy -0.1618949448364035
                Solving CC Amplitude Equations
                ------------------------------
  Iter             Energy              RMS        T1Diag      D1Diag    New D1Diag    D2Diag
  ----     ---------------------    ---------   ----------  ----------  ----------   --------
     0        -0.161894944836403    0.000e+00    0.000000    0.000000    0.000000    0.000000
     1        -0.179866225887107    4.017e-02    0.006206    0.000000    0.000000    0.000000
     2        -0.185094112615778    1.325e-02    0.009322    0.000000    0.000000    0.000000
     3        -0.185372503130440    3.105e-03    0.010262    0.000000    0.000000    0.000000
     4        -0.185367946385628    6.536e-04    0.010405    0.000000    0.000000    0.000000
     5        -0.185362158081743    2.037e-04    0.010425    0.000000    0.000000    0.000000
     6        -0.185362976353703    6.665e-05    0.010425    0.000000    0.000000    0.000000
     7        -0.185363501419916    1.981e-05    0.010424    0.000000    0.000000    0.000000
     8        -0.185363340596531    6.135e-06    0.010423    0.000000    0.000000    0.000000
     9        -0.185363331586636    1.460e-06    0.010423    0.000000    0.000000    0.000000
    10        -0.185363340036407    3.533e-07    0.010423    0.000000    0.000000    0.000000
    11        -0.185363335466166    8.103e-08    0.010423    0.000000    0.000000    0.000000

    Iterations converged.

    Largest TIA Amplitudes:
              3  39         0.0048486971
              0   1         0.0046951899
              0   3        -0.0042941288
              0   5         0.0032196624
              2  33         0.0027043711
              1  26         0.0027043700
              3  40        -0.0024494354
              2  36        -0.0020765551
              1  29        -0.0020765549
              3  43        -0.0016824243

    Largest Tia Amplitudes:
              0   4         0.0166115030
              0   2         0.0162569798
              0   5        -0.0067669849
              1  27         0.0034354647
              2  34         0.0034354647
              0   6         0.0028865820
              1  29        -0.0022132865
              2  36        -0.0022132863
              0   0         0.0021964394
              2  37        -0.0019884978

    Largest TIJAB Amplitudes:
      2   1  20   4        -0.0239362560
      2   1  19   2        -0.0216948628
      2   1  19   4        -0.0202147957
      2   1  20   2        -0.0202147957
      3   1  16   3         0.0188169958
      3   2  12   3         0.0188169947
      3   2  11   1        -0.0184611393
      3   1  15   1        -0.0184611387
      3   2  12   1        -0.0164606461
      3   1  16   1        -0.0164606458

    Largest Tijab Amplitudes:
      2   1  20   3        -0.0229804168
      2   1  19   1        -0.0216337625
      2   1  19   3        -0.0195081610
      2   1  20   1        -0.0195081610
      2   0  39  12         0.0140231175
      1   0  39  16         0.0140231175
      1   0  39  15         0.0134250910
      2   0  39  11         0.0134250907
      2   1  33  26        -0.0133057529

      * MP2 total energy                      = -459.647984065835089
      * CCSD total energy                     = -459.671452456464863
      * CCSD(T) total energy                     = -459.677857942258413
*** Psi4 exiting successfully. Buy a developer a beer!
