                               Psi4 1.4a3.dev88

  ==> Input File <==

--------------------------------------------------------------------------
# Any line starting with the # character is a comment line
memory 250000 mb
molecule molecule{
0 2
Cl          0.0000000000        0.0000000000        0.0000000000
}

set {
  reference uhf
  basis aug-cc-pV(d+d)Z
  scf_type OUT_OF_CORE
  freeze_core true
}

energy('ccsd(t)')
--------------------------------------------------------------------------

    Molecular point group: d2h
    Geometry (in Angstrom), charge = 0, multiplicity = 2:

       Center              X                  Y                   Z               Mass
    ------------   -----------------  -----------------  -----------------  -----------------
         CL           0.000000000000     0.000000000000     0.000000000000    34.968852682000

  Charge       = 0
  Multiplicity = 2
  Basis Set: AUG-CC-PV(D+D)Z
    Blend: AUG-CC-PV(D+D)Z

    Orbital Energies [Eh]
    ---------------------

    Alpha Occupied:

       1Ag  -104.890778     2Ag   -10.614103     1B1u   -8.099860
       1B3u   -8.074358     1B2u   -8.074358     3Ag    -1.137772
       2B1u   -0.580303     2B3u   -0.503933     2B2u   -0.503933

    Alpha Virtual:

       3B1u    0.124811     4Ag     0.135216     3B3u    0.135778
       3B2u    0.135778     5Ag     0.407042     1B3g    0.416841
       1B2g    0.416841     1B1g    0.449040     6Ag     0.449040
       4B1u    0.837112     4B3u    0.881224     4B2u    0.881224
       7Ag     1.092981     8Ag     1.213600     2B2g    1.223506
       2B3g    1.223506     2B1g    1.265348     9Ag     1.265348
      10Ag     5.895912     3B2g    5.905566     3B3g    5.905566
       3B1g    5.934626    11Ag     5.934626

    Beta Occupied:

       1Ag  -104.879542     2Ag   -10.602629     1B2u   -8.068157
       1B3u   -8.068157     1B1u   -8.051527     3Ag    -1.015988
       2B2u   -0.479755     2B3u   -0.479755

    Beta Virtual:

       2B1u   -0.046873     3B2u    0.137139     3B3u    0.137139
       4Ag     0.142204     3B1u    0.151075     1B1g    0.452353
       5Ag     0.452353     1B2g    0.469719     1B3g    0.469719
       6Ag     0.477211     4B2u    0.890530     4B3u    0.890530
       4B1u    0.925437     7Ag     1.120657     2B1g    1.271826
       8Ag     1.271826     2B3g    1.278512     2B2g    1.278512
       9Ag     1.281823    10Ag     5.910372     3B3g    5.916910
       3B2g    5.916910    11Ag     5.936492     3B1g    5.936492

    Final Occupation by Irrep:
             Ag   B1g   B2g   B3g    Au   B1u   B2u   B3u
    DOCC [     3,    0,    0,    0,    0,    1,    2,    2 ]
    SOCC [     0,    0,    0,    0,    0,    1,    0,    0 ]

  @UHF Final Energy:  -459.47305700336580

   => Energetics <=

    Nuclear Repulsion Energy =              0.0000000000000000
    One-Electron Energy =                -634.8212044654637793
    Two-Electron Energy =                 175.3481474620979839
    Total Energy =                       -459.4730570033657955

  UHF NO Occupations:
  HONO-2 :    2B3u 1.9999113
  HONO-1 :    3 Ag 1.9961929
  HONO-0 :    2B1u 1.0000000
  LUNO+0 :    4 Ag 0.0038071
  LUNO+1 :    3B3u 0.0000887
  LUNO+2 :    3B2u 0.0000887
  LUNO+3 :    3B1u 0.0000008

Computation Completed

Properties will be evaluated at   0.000000,   0.000000,   0.000000 [a0]

Properties computed using the SCF density matrix

  Nuclear Dipole Moment: [e a0]
     X:     0.0000      Y:     0.0000      Z:     0.0000

  Electronic Dipole Moment: [e a0]
     X:     0.0000      Y:     0.0000      Z:     0.0000

  Dipole Moment: [e a0]
     X:     0.0000      Y:     0.0000      Z:     0.0000     Total:     0.0000

  Dipole Moment: [D]
     X:     0.0000      Y:     0.0000      Z:     0.0000     Total:     0.0000

*** tstop() called on n412-039.vsc4.prov at Tue Jan 26 18:14:52 2021
Module time:
	user time   =       7.47 seconds =       0.12 minutes
	system time =       0.54 seconds =       0.01 minutes
	total time  =          2 seconds =       0.03 minutes
Total time:
	user time   =       7.47 seconds =       0.12 minutes
	system time =       0.54 seconds =       0.01 minutes
	total time  =          2 seconds =       0.03 minutes

*** tstart() called on n412-039.vsc4.prov
*** at Tue Jan 26 18:14:52 2021

	Wfn Parameters:
	--------------------
	Wavefunction         = CCSD_T
	Number of irreps     = 8
	Number of MOs        = 32
	Number of active MOs = 27
	AO-Basis             = NONE
	Semicanonical        = false
	Reference            = UHF
	Print Level          = 1

	IRREP	# MOs	# FZDC	# DOCC	# SOCC	# VIRT	# FZVR
	-----	-----	------	------	------	------	------
	 Ag	   11	    2	    1	    0	    8	    0
	 B1g	   3	    0	    0	    0	    3	    0
	 B2g	   3	    0	    0	    0	    3	    0
	 B3g	   3	    0	    0	    0	    3	    0
	 Au	   0	    0	    0	    0	    0	    0
	 B1u	   4	    1	    0	    1	    2	    0
	 B2u	   4	    1	    1	    0	    2	    0
	 B3u	   4	    1	    1	    0	    2	    0
	Transforming integrals...
	IWL integrals will be deleted.
	(OO|OO)...
	Presorting SO-basis two-electron integrals.
	Sorting File: SO Ints (nn|nn) nbuckets = 1
	Constructing frozen core operators
	Starting AA/AB first half-transformation.
	Sorting AA/AB half-transformed integrals.
	Starting BB first half-transformation.
	Sorting BB half-transformed integrals.
	First half integral transformation complete.
	Starting AA second half-transformation.
	Starting AB second half-transformation.
	Starting BB second half-transformation.
	Two-electron integral transformation complete.
	(OO|OV)...
	Starting AA second half-transformation.
	Starting AB second half-transformation.
	Starting BB second half-transformation.
	Two-electron integral transformation complete.
	(OO|VV)...
	Starting AA second half-transformation.
	Starting AB second half-transformation.
	Starting BB second half-transformation.
	Two-electron integral transformation complete.
	(OV|OO)...
	Starting AA/AB first half-transformation.
	Sorting AA/AB half-transformed integrals.
	Starting BB first half-transformation.
	Sorting BB half-transformed integrals.
	First half integral transformation complete.
	Starting AA second half-transformation.
	Starting AB second half-transformation.
	Starting BB second half-transformation.
	Two-electron integral transformation complete.
	(OV|OV)...
	Starting AA second half-transformation.
	Starting AB second half-transformation.
	Starting BB second half-transformation.
	Two-electron integral transformation complete.
	(OV|VV)...
	Starting AA second half-transformation.
	Starting AB second half-transformation.
	Starting BB second half-transformation.
	Two-electron integral transformation complete.
	(VV|OO)...
	Starting AA/AB first half-transformation.
	Sorting AA/AB half-transformed integrals.
	Starting BB first half-transformation.
	Sorting BB half-transformed integrals.
	First half integral transformation complete.
	Starting AA second half-transformation.
	Starting AB second half-transformation.
	Starting BB second half-transformation.
	Two-electron integral transformation complete.
	(VV|OV)...
	Starting AA second half-transformation.
	Starting AB second half-transformation.
	Starting BB second half-transformation.
	Two-electron integral transformation complete.
	(VV|VV)...
	Starting AA second half-transformation.
	Starting AB second half-transformation.
	Starting BB second half-transformation.
	Two-electron integral transformation complete.
	Frozen core energy     =   -444.73669904041725

	Size of irrep 0 of <AB|CD> integrals:      0.002 (MW) /      0.013 (MB)
	Size of irrep 1 of <AB|CD> integrals:      0.001 (MW) /      0.011 (MB)
	Size of irrep 2 of <AB|CD> integrals:      0.001 (MW) /      0.011 (MB)
	Size of irrep 3 of <AB|CD> integrals:      0.001 (MW) /      0.011 (MB)
	Size of irrep 4 of <AB|CD> integrals:      0.000 (MW) /      0.003 (MB)
	Size of irrep 5 of <AB|CD> integrals:      0.001 (MW) /      0.006 (MB)
	Size of irrep 6 of <AB|CD> integrals:      0.001 (MW) /      0.006 (MB)
	Size of irrep 7 of <AB|CD> integrals:      0.001 (MW) /      0.006 (MB)
	Total:                                     0.008 (MW) /      0.067 (MB)

	Size of irrep 0 of <ab|cd> integrals:      0.002 (MW) /      0.014 (MB)
	Size of irrep 1 of <ab|cd> integrals:      0.001 (MW) /      0.011 (MB)
	Size of irrep 2 of <ab|cd> integrals:      0.002 (MW) /      0.012 (MB)
	Size of irrep 3 of <ab|cd> integrals:      0.002 (MW) /      0.012 (MB)
	Size of irrep 4 of <ab|cd> integrals:      0.000 (MW) /      0.004 (MB)
	Size of irrep 5 of <ab|cd> integrals:      0.001 (MW) /      0.010 (MB)
	Size of irrep 6 of <ab|cd> integrals:      0.001 (MW) /      0.008 (MB)
	Size of irrep 7 of <ab|cd> integrals:      0.001 (MW) /      0.008 (MB)
	Total:                                     0.010 (MW) /      0.079 (MB)

	Size of irrep 0 of <Ab|Cd> integrals:      0.011 (MW) /      0.088 (MB)
	Size of irrep 1 of <Ab|Cd> integrals:      0.005 (MW) /      0.044 (MB)
	Size of irrep 2 of <Ab|Cd> integrals:      0.006 (MW) /      0.046 (MB)
	Size of irrep 3 of <Ab|Cd> integrals:      0.006 (MW) /      0.046 (MB)
	Size of irrep 4 of <Ab|Cd> integrals:      0.002 (MW) /      0.012 (MB)
	Size of irrep 5 of <Ab|Cd> integrals:      0.004 (MW) /      0.033 (MB)
	Size of irrep 6 of <Ab|Cd> integrals:      0.003 (MW) /      0.028 (MB)
	Size of irrep 7 of <Ab|Cd> integrals:      0.003 (MW) /      0.028 (MB)
	Total:                                     0.041 (MW) /      0.325 (MB)

	Size of irrep 0 of <IA|BC> integrals:      0.001 (MW) /      0.012 (MB)
	Size of irrep 1 of <IA|BC> integrals:      0.001 (MW) /      0.004 (MB)
	Size of irrep 2 of <IA|BC> integrals:      0.001 (MW) /      0.004 (MB)
	Size of irrep 3 of <IA|BC> integrals:      0.001 (MW) /      0.004 (MB)
	Size of irrep 4 of <IA|BC> integrals:      0.000 (MW) /      0.003 (MB)
	Size of irrep 5 of <IA|BC> integrals:      0.001 (MW) /      0.007 (MB)
	Size of irrep 6 of <IA|BC> integrals:      0.001 (MW) /      0.007 (MB)
	Size of irrep 7 of <IA|BC> integrals:      0.001 (MW) /      0.007 (MB)
	Total:                                     0.006 (MW) /      0.048 (MB)

	Size of irrep 0 of <ia|bc> integrals:      0.001 (MW) /      0.010 (MB)
	Size of irrep 1 of <ia|bc> integrals:      0.001 (MW) /      0.004 (MB)
	Size of irrep 2 of <ia|bc> integrals:      0.000 (MW) /      0.004 (MB)
	Size of irrep 3 of <ia|bc> integrals:      0.000 (MW) /      0.004 (MB)
	Size of irrep 4 of <ia|bc> integrals:      0.000 (MW) /      0.002 (MB)
	Size of irrep 5 of <ia|bc> integrals:      0.001 (MW) /      0.005 (MB)
	Size of irrep 6 of <ia|bc> integrals:      0.001 (MW) /      0.006 (MB)
	Size of irrep 7 of <ia|bc> integrals:      0.001 (MW) /      0.006 (MB)
	Total:                                     0.005 (MW) /      0.042 (MB)

	Size of irrep 0 of <Ia|Bc> integrals:      0.002 (MW) /      0.013 (MB)
	Size of irrep 1 of <Ia|Bc> integrals:      0.001 (MW) /      0.004 (MB)
	Size of irrep 2 of <Ia|Bc> integrals:      0.001 (MW) /      0.005 (MB)
	Size of irrep 3 of <Ia|Bc> integrals:      0.001 (MW) /      0.005 (MB)
	Size of irrep 4 of <Ia|Bc> integrals:      0.000 (MW) /      0.003 (MB)
	Size of irrep 5 of <Ia|Bc> integrals:      0.001 (MW) /      0.009 (MB)
	Size of irrep 6 of <Ia|Bc> integrals:      0.001 (MW) /      0.008 (MB)
	Size of irrep 7 of <Ia|Bc> integrals:      0.001 (MW) /      0.008 (MB)
	Total:                                     0.007 (MW) /      0.053 (MB)

	Size of irrep 0 of <iA|bC> integrals:      0.001 (MW) /      0.010 (MB)
	Size of irrep 1 of <iA|bC> integrals:      0.001 (MW) /      0.004 (MB)
	Size of irrep 2 of <iA|bC> integrals:      0.000 (MW) /      0.003 (MB)
	Size of irrep 3 of <iA|bC> integrals:      0.000 (MW) /      0.003 (MB)
	Size of irrep 4 of <iA|bC> integrals:      0.000 (MW) /      0.002 (MB)
	Size of irrep 5 of <iA|bC> integrals:      0.001 (MW) /      0.004 (MB)
	Size of irrep 6 of <iA|bC> integrals:      0.001 (MW) /      0.006 (MB)
	Size of irrep 7 of <iA|bC> integrals:      0.001 (MW) /      0.006 (MB)
	Total:                                     0.005 (MW) /      0.039 (MB)

	Size of irrep 0 of tIjAb amplitudes:       0.000 (MW) /      0.003 (MB)
	Size of irrep 1 of tIjAb amplitudes:       0.000 (MW) /      0.001 (MB)
	Size of irrep 2 of tIjAb amplitudes:       0.000 (MW) /      0.001 (MB)
	Size of irrep 3 of tIjAb amplitudes:       0.000 (MW) /      0.001 (MB)
	Size of irrep 4 of tIjAb amplitudes:       0.000 (MW) /      0.000 (MB)
	Size of irrep 5 of tIjAb amplitudes:       0.000 (MW) /      0.001 (MB)
	Size of irrep 6 of tIjAb amplitudes:       0.000 (MW) /      0.001 (MB)
	Size of irrep 7 of tIjAb amplitudes:       0.000 (MW) /      0.001 (MB)
	Total:                                     0.001 (MW) /      0.007 (MB)

	Nuclear Rep. energy          =      0.00000000000000
	SCF energy                   =   -459.47305700336580
	One-electron energy          =    -24.77127553620220
	Two-electron (AA) energy     =      2.59306956853947
	Two-electron (BB) energy     =      1.25934364368285
	Two-electron (AB) energy     =      6.18250436103120
	Two-electron energy          =     10.03491757325352
	Reference energy             =   -459.47305700336591

*** tstop() called on n412-039.vsc4.prov at Tue Jan 26 18:14:53 2021
Module time:
	user time   =       0.03 seconds =       0.00 minutes
	system time =       0.11 seconds =       0.00 minutes
	total time  =          1 seconds =       0.02 minutes
Total time:
	user time   =       7.50 seconds =       0.12 minutes
	system time =       0.65 seconds =       0.01 minutes
	total time  =          3 seconds =       0.05 minutes
            **************************
            *                        *
            *        CCENERGY        *
            *                        *
            **************************

    Nuclear Rep. energy (wfn)     =    0.000000000000000
    SCF energy          (wfn)     = -459.473057003365795
    Reference energy    (file100) = -459.473057003365909

    Input parameters:
    -----------------
    Wave function   =     CCSD_T
    Reference wfn   =     UHF
    Brueckner       =     No
    Memory (Mbytes) =     250000.0
    Maxiter         =     50
    R_Convergence   =     1.0e-07
    E_Convergence   =     1.0e-06
    Restart         =     Yes
    DIIS            =     Yes
    AO Basis        =     NONE
    ABCD            =     NEW
    Cache Level     =     2
    Cache Type      =     LRU
    Print Level     =     1
    Num. of threads =     48
    # Amps to Print =     10
    Print MP2 Amps? =     No
    Analyze T2 Amps =     No
    Print Pair Ener =     No
    Local CC        =     No
    SCS-MP2         =     False
    SCSN-MP2        =     False
    SCS-CCSD        =     False

MP2 correlation energy -0.1227479073816448
                Solving CC Amplitude Equations
                ------------------------------
  Iter             Energy              RMS        T1Diag      D1Diag    New D1Diag    D2Diag
  ----     ---------------------    ---------   ----------  ----------  ----------   --------
     0        -0.122747907381645    0.000e+00    0.000000    0.000000    0.000000    0.000000
     1        -0.138113944672479    3.747e-02    0.005966    0.000000    0.000000    0.000000
     2        -0.142028131889325    1.246e-02    0.009012    0.000000    0.000000    0.000000
     3        -0.142367898255235    2.984e-03    0.009872    0.000000    0.000000    0.000000
     4        -0.142362738119977    6.701e-04    0.009919    0.000000    0.000000    0.000000
     5        -0.142361113019514    2.703e-04    0.009928    0.000000    0.000000    0.000000
     6        -0.142361822334812    8.128e-05    0.009921    0.000000    0.000000    0.000000
     7        -0.142362119658412    1.883e-05    0.009920    0.000000    0.000000    0.000000
     8        -0.142362016737719    4.487e-06    0.009920    0.000000    0.000000    0.000000
     9        -0.142361995893109    1.002e-06    0.009920    0.000000    0.000000    0.000000
    10        -0.142361996650998    2.591e-07    0.009920    0.000000    0.000000    0.000000
    11        -0.142361995121626    6.528e-08    0.009920    0.000000    0.000000    0.000000

    Iterations converged.

    Largest TIA Amplitudes:
              1  17         0.0077384714
              3  21         0.0035849517
              2  19         0.0035849508
              0   1         0.0028874370
              1  18        -0.0028319524
              0   3         0.0025675206
              0   4         0.0016034041
              0   0         0.0009376942
              2  20         0.0001030836
              3  22         0.0001030828

    Largest Tia Amplitudes:
              0   2        -0.0195768766
              0   5         0.0112007170
              1  20         0.0052094806
              2  22         0.0052094796
              0   3         0.0035989460
              1  21        -0.0005951622
              2  23        -0.0005951613
              0   6         0.0003311148
              0   0         0.0001313000

    Largest TIJAB Amplitudes:
      3   2   8   2         0.0338602822
      2   1  14   1         0.0270914703
      3   1  11   1         0.0270914700
      2   1  11   8         0.0172795572
      2   1  14   2        -0.0172795571
      3   1  11   2         0.0172795570
      3   1  14   8         0.0172795570
      3   2   8   5         0.0169039445
      3   2   9   2         0.0169039445
      2   1  20  18        -0.0158911985

    Largest Tijab Amplitudes:
      2   1   8   1         0.0325962596
      2   0  17  11        -0.0167591021
      1   0  17  14        -0.0167591018
      2   1  14  11         0.0162760327
      2   1   8   4         0.0157415270
      2   1   9   1         0.0157415270
      2   1  23  21        -0.0154033214
      2   1   9   4         0.0133114899
      2   0  23   3        -0.0090921137
      1   0  21   3        -0.0090921134

    Largest TIjAb Amplitudes:
      1   0   1  17        -0.0445379209
      2   0  14  17         0.0385239843
      3   0  11  17         0.0385239841
      3   2  11  11        -0.0348865510
      2   1  14  14        -0.0348865509
      3   2   2   1        -0.0331699874
      3   2   8   8        -0.0331699870
      2   1   8   8        -0.0331699869
      2   1   2   1        -0.0331699865
      2   1  20  21        -0.0298268946

    SCF energy       (wfn)                    = -459.473057003365795
    Reference energy (file100)                = -459.473057003365909

      * MP2 total energy                      = -459.595804910747574
      * CCSD total energy                     = -459.615418998487542
      * CCSD(T) total energy                     = -459.618074847849982
*** Psi4 exiting successfully. Buy a developer a beer!
