                               Psi4 1.4a3.dev88

  ==> Input File <==

--------------------------------------------------------------------------
# Any line starting with the # character is a comment line
memory 250000 mb
molecule molecule{
0 1
O          1.1623998207       -0.0095206174        0.0000000000
C         -0.0103871987       -0.0419819387        0.0000000000
N         -1.2231559955        0.0984473505        0.0000000000
H         -1.8749565266       -0.6671278944        0.0000000000
}

set {
  reference rhf
  basis aug-cc-pV(d+d)Z
  scf_type OUT_OF_CORE
  freeze_core true
}

energy('ccsd(t)')
--------------------------------------------------------------------------

    Molecular point group: cs

    Geometry (in Angstrom), charge = 0, multiplicity = 1:

       Center              X                  Y                   Z               Mass
    ------------   -----------------  -----------------  -----------------  -----------------
         O            1.175182570230    -0.010686799639     0.000000000000    15.994914619570
         C            0.002395550830    -0.043148120939     0.000000000000    12.000000000000
         N           -1.210373245970     0.097281168261     0.000000000000    14.003074004430
         H           -1.862173777070    -0.668294076639     0.000000000000     1.007825032230

  Charge       = 0
  Multiplicity = 1
  Basis Set: AUG-CC-PV(D+D)Z
    Blend: AUG-CC-PV(D+D)Z

    Orbital Energies [Eh]
    ---------------------

    Doubly Occupied:

       1Ap   -20.638017     2Ap   -15.607252     3Ap   -11.433605
       4Ap    -1.480056     5Ap    -1.266939     6Ap    -0.816672
       7Ap    -0.734376     1App   -0.656607     8Ap    -0.646110
       9Ap    -0.489260     2App   -0.454051

  @RHF Final Energy:  -167.78992056573409

   => Energetics <=

    Nuclear Repulsion Energy =             58.9249025327379243
    One-Electron Energy =                -344.9837552574885535
    Two-Electron Energy =                 118.2689321590165434
    Total Energy =                       -167.7899205657340929

  Dipole Moment: [D]
     X:    -1.7249      Y:    -1.5386      Z:     0.0000     Total:     2.3113

      * MP2 total energy                      = -168.280237378996958
      * CCSD total energy                     = -168.282419475282069
      * CCSD(T) total energy                  = -168.304413640499149
*** Psi4 exiting successfully. Buy a developer a beer!
