                               Psi4 1.2a1.dev939

  ==> Input File <==

--------------------------------------------------------------------------
# Any line starting with the # character is a comment line

memory 32000 mb

molecule molecule {
0 1
O         -0.0631131193        0.0000000000       -1.1364191151
H          0.8724867027        0.0000000000       -1.3867383703
Cl         0.0036769186        0.0000000000        0.5522740830
}

set {
  reference rhf
  basis aug-cc-pv(D+d)z
  scf_type OUT_OF_CORE
  freeze_core true
}

energy('ccsd')
--------------------------------------------------------------------------

    Molecular point group: cs

    Geometry (in Angstrom), charge = 0, multiplicity = 1:

       Center              X                  Y                   Z               Mass
    ------------   -----------------  -----------------  -----------------  -----------------
           O          0.063082383459    -1.131375488374     0.000000000000    15.994914619560
           H         -0.872517438541    -1.381694743574     0.000000000000     1.007825032070
          CL         -0.003707654441     0.557317709726     0.000000000000    34.968852682000

  Charge       = 0
  Multiplicity = 1
  Basis Set: AUG-CC-PV(D+D)Z
    Blend: AUG-CC-PV(D+D)Z

    Orbital Energies (a.u.)
    -----------------------

    Doubly Occupied:

       1Ap  -104.891714     2Ap   -20.656008     3Ap   -10.612382
       4Ap    -8.080750     5Ap    -8.075766     1App   -8.075508
       6Ap    -1.418720     7Ap    -1.064203     8Ap    -0.723478
       2App   -0.614305     9Ap    -0.606844    10Ap    -0.469664
       3App   -0.444691

  @RHF Final Energy:  -534.88988389638484

   => Energetics <=

    Nuclear Repulsion Energy =             51.1893067334008762
    One-Electron Energy =                -840.6903130867294749
    Two-Electron Energy =                 254.6111224569438036
    Total Energy =                       -534.8898838963848448
      * MP2 total energy                      = -535.249848453550385
      * CCSD total energy                     = -535.269273063059131
*** Psi4 exiting successfully. Buy a developer a beer!
