                               Psi4 1.2a1.dev939

  ==> Input File <==

--------------------------------------------------------------------------
# Any line starting with the # character is a comment line
memory 250000 mb
molecule molecule{
0 1
O         -0.0631131193        0.0000000000       -1.1364191151
H          0.8724867027        0.0000000000       -1.3867383703
Cl         0.0036769186        0.0000000000        0.5522740830
}

set {
  reference rhf
  basis aug-cc-pv(6+d)z
  scf_type OUT_OF_CORE
  freeze_core true
}

energy('ccsd')
--------------------------------------------------------------------------

    Molecular point group: cs

    Geometry (in Angstrom), charge = 0, multiplicity = 1:

       Center              X                  Y                   Z               Mass
    ------------   -----------------  -----------------  -----------------  -----------------
           O          0.063082383459    -1.131375488374     0.000000000000    15.994914619560
           H         -0.872517438541    -1.381694743574     0.000000000000     1.007825032070
          CL         -0.003707654441     0.557317709726     0.000000000000    34.968852682000

  Charge       = 0
  Multiplicity = 1
  Basis Set: AUG-CC-PV(6+D)Z
    Blend: AUG-CC-PV(6+D)Z

    Orbital Energies (a.u.)
    -----------------------

    Doubly Occupied:

       1Ap  -104.889686     2Ap   -20.640938     3Ap   -10.610070
       4Ap    -8.077102     5Ap    -8.074829     1App   -8.074685
       6Ap    -1.412181     7Ap    -1.060843     8Ap    -0.721063
       2App   -0.614233     9Ap    -0.604848    10Ap    -0.468483
       3App   -0.444310

  @RHF Final Energy:  -534.93445620045941

   => Energetics <=

    Nuclear Repulsion Energy =             51.1893067334008762
    One-Electron Energy =                -840.8609846750346151
    Two-Electron Energy =                 254.7372217411743520
    Total Energy =                       -534.9344562004594081
      * MP2 total energy                      = -535.438534461448057
      * CCSD total energy                     = -535.446685830117985
*** Psi4 exiting successfully. Buy a developer a beer!
