                               Psi4 1.2a1.dev939

  ==> Input File <==

--------------------------------------------------------------------------
# Any line starting with the # character is a comment line

memory 32000 mb

molecule molecule {
0 1
Si         0.0000000000        0.0000000000       -0.5554822253
O          0.0000000000        0.0000000000        0.9750988186
}

set {
  reference rhf
  basis aug-cc-pv(D+d)z
  scf_type OUT_OF_CORE
  freeze_core true
}

energy('ccsd')
--------------------------------------------------------------------------

    Molecular point group: c2v

    Geometry (in Angstrom), charge = 0, multiplicity = 1:

       Center              X                  Y                   Z               Mass
    ------------   -----------------  -----------------  -----------------  -----------------
          SI          0.000000000000     0.000000000000    -0.556754333549    27.976926532460
           O          0.000000000000     0.000000000000     0.973826710351    15.994914619560

  Charge       = 0
  Multiplicity = 1
  Basis Set: AUG-CC-PV(D+D)Z
    Blend: AUG-CC-PV(D+D)Z

    Orbital Energies (a.u.)
    -----------------------

    Doubly Occupied:

       1A1   -68.837712     2A1   -20.545511     3A1    -6.182612
       1B1    -4.284110     1B2    -4.284110     4A1    -4.283570
       5A1    -1.263977     6A1    -0.612759     2B1    -0.470776
       2B2    -0.470776     7A1    -0.438853

  @RHF Final Energy:  -363.81132139713520

   => Energetics <=

    Nuclear Repulsion Energy =             38.7224496202190238
    One-Electron Energy =                -581.7180107650849550
    Two-Electron Energy =                 179.1842397477307998
    Total Energy =                       -363.8113213971352025
      * MP2 total energy                      = -364.101929537271417
      * CCSD total energy                     = -364.106285058864557
*** Psi4 exiting successfully. Buy a developer a beer!
