                               Psi4 1.2a1.dev939

  ==> Input File <==

--------------------------------------------------------------------------
# Any line starting with the # character is a comment line

memory 32000 mb

molecule molecule {
0 1
Si         0.0000000000        0.0000000000       -0.5554822253
O          0.0000000000        0.0000000000        0.9750988186
}

set {
  reference rhf

  basis aug-cc-pv(5+d)z
  scf_type OUT_OF_CORE
  freeze_core true
}

energy('ccsd')
--------------------------------------------------------------------------

    Molecular point group: c2v

    Geometry (in Angstrom), charge = 0, multiplicity = 1:

       Center              X                  Y                   Z               Mass
    ------------   -----------------  -----------------  -----------------  -----------------
          SI          0.000000000000     0.000000000000    -0.556754333549    27.976926532460
           O          0.000000000000     0.000000000000     0.973826710351    15.994914619560

  Charge       = 0
  Multiplicity = 1
  Basis Set: AUG-CC-PV(5+D)Z
    Blend: AUG-CC-PV(5+D)Z

    Orbital Energies (a.u.)
    -----------------------

    Doubly Occupied:

       1A1   -68.825217     2A1   -20.530408     3A1    -6.171192
       1B1    -4.272939     1B2    -4.272939     4A1    -4.271663
       5A1    -1.255665     6A1    -0.608231     2B2    -0.469531
       2B1    -0.469531     7A1    -0.438068

  @RHF Final Energy:  -363.85263029993916

   => Energetics <=

    Nuclear Repulsion Energy =             38.7224496202190238
    One-Electron Energy =                -581.9793929118721962
    Two-Electron Energy =                 179.4043129917140220
    Total Energy =                       -363.8526302999391646
      * MP2 total energy                      = -364.229312907852830
      * CCSD total energy                     = -364.222482589789138
*** Psi4 exiting successfully. Buy a developer a beer!
