                               Psi4 1.2a1.dev939

  ==> Input File <==

--------------------------------------------------------------------------
# Any line starting with the # character is a comment line
memory 250000 mb
molecule molecule{
0 1
Si         0.0000000000        0.0000000000       -0.5554822253
O          0.0000000000        0.0000000000        0.9750988186
}

set {
  reference rhf
  basis aug-cc-pv(6+d)z
  scf_type OUT_OF_CORE
  freeze_core true
}

energy('ccsd')
--------------------------------------------------------------------------

    Molecular point group: c2v

    Geometry (in Angstrom), charge = 0, multiplicity = 1:

       Center              X                  Y                   Z               Mass
    ------------   -----------------  -----------------  -----------------  -----------------
          SI          0.000000000000     0.000000000000    -0.556754333549    27.976926532460
           O          0.000000000000     0.000000000000     0.973826710351    15.994914619560

  Charge       = 0
  Multiplicity = 1
  Basis Set: AUG-CC-PV(6+D)Z
    Blend: AUG-CC-PV(6+D)Z

    Orbital Energies (a.u.)
    -----------------------

    Doubly Occupied:

       1A1   -68.825114     2A1   -20.530342     3A1    -6.171029
       1B2    -4.272763     1B1    -4.272763     4A1    -4.271599
       5A1    -1.255637     6A1    -0.608213     2B1    -0.469532
       2B2    -0.469532     7A1    -0.438085

  @RHF Final Energy:  -363.85300580920449

   => Energetics <=

    Nuclear Repulsion Energy =             38.7224496202190238
    One-Electron Energy =                -581.9816889967065663
    Two-Electron Energy =                 179.4062335672831523
    Total Energy =                       -363.8530058092044328
      * MP2 total energy                      = -364.233833553128648
      * CCSD total energy                     = -364.225419762616070
*** Psi4 exiting successfully. Buy a developer a beer!
