                               Psi4 1.2a1.dev939

  ==> Input File <==

--------------------------------------------------------------------------
# Any line starting with the # character is a comment line

memory 32000 mb

molecule molecule {
0 1
Si         0.0000000000        0.0000000000       -0.5554822253
O          0.0000000000        0.0000000000        0.9750988186
}

set {
  reference rhf
  basis aug-cc-pv(T+d)z
  scf_type OUT_OF_CORE
  freeze_core true
}

energy('ccsd')
--------------------------------------------------------------------------

    Molecular point group: c2v

    Geometry (in Angstrom), charge = 0, multiplicity = 1:

       Center              X                  Y                   Z               Mass
    ------------   -----------------  -----------------  -----------------  -----------------
          SI          0.000000000000     0.000000000000    -0.556754333549    27.976926532460
           O          0.000000000000     0.000000000000     0.973826710351    15.994914619560

  Charge       = 0
  Multiplicity = 1
  Basis Set: AUG-CC-PV(T+D)Z
    Blend: AUG-CC-PV(T+D)Z

    Orbital Energies (a.u.)
    -----------------------

    Doubly Occupied:

       1A1   -68.826697     2A1   -20.534500     3A1    -6.172938
       1B1    -4.274456     1B2    -4.274456     4A1    -4.273372
       5A1    -1.257133     6A1    -0.608737     2B1    -0.469557
       2B2    -0.469557     7A1    -0.438072

  @RHF Final Energy:  -363.84339040724518

   => Energetics <=

    Nuclear Repulsion Energy =             38.7224496202190238
    One-Electron Energy =                -581.9327320458519353
    Two-Electron Energy =                 179.3668920183878015
    Total Energy =                       -363.8433904072451242
      * MP2 total energy                      = -364.189342569473411
      * CCSD total energy                     = -364.189021052352189
*** Psi4 exiting successfully. Buy a developer a beer!
