                               Psi4 1.2a1.dev939

  ==> Input File <==

--------------------------------------------------------------------------
# Any line starting with the # character is a comment line

memory 32000 mb

molecule molecule {
0 1
Si         0.0000000000        0.0000000000       -0.5554822253
O          0.0000000000        0.0000000000        0.9750988186
}

set {
  reference rhf
  basis aug-cc-pv(Q+d)z
  scf_type OUT_OF_CORE
  freeze_core true
}

energy('ccsd')
--------------------------------------------------------------------------

    Molecular point group: c2v

    Geometry (in Angstrom), charge = 0, multiplicity = 1:

       Center              X                  Y                   Z               Mass
    ------------   -----------------  -----------------  -----------------  -----------------
          SI          0.000000000000     0.000000000000    -0.556754333549    27.976926532460
           O          0.000000000000     0.000000000000     0.973826710351    15.994914619560

  Charge       = 0
  Multiplicity = 1
  Basis Set: AUG-CC-PV(Q+D)Z
    Blend: AUG-CC-PV(Q+D)Z

    Orbital Energies (a.u.)
    -----------------------

    Doubly Occupied:

       1A1   -68.823986     2A1   -20.531238     3A1    -6.171127
       1B1    -4.273062     1B2    -4.273062     4A1    -4.271229
       5A1    -1.255977     6A1    -0.608306     2B2    -0.469558
       2B1    -0.469558     7A1    -0.438050

  @RHF Final Energy:  -363.85076105372343

   => Energetics <=

    Nuclear Repulsion Energy =             38.7224496202190238
    One-Electron Energy =                -581.9761112241083083
    Two-Electron Energy =                 179.4029005501659242
    PCM Polarization Energy =               0.0000000000000000
    Total Energy =                       -363.8507610537234314
      * MP2 total energy                      = -364.218163402325786
      * CCSD total energy                     = -364.214189977331898
*** Psi4 exiting successfully. Buy a developer a beer!
