                               Psi4 1.2a1.dev938

  ==> Input File <==

--------------------------------------------------------------------------
# Any line starting with the # character is a comment line
memory 250000 mb
molecule molecule{
1 3
N          0.0000000000        0.0000000000        0.0000000000
}

set {
  reference uhf
  basis aug-cc-pv(5+d)z
  scf_type OUT_OF_CORE
  freeze_core true
}

energy('ccsd')
--------------------------------------------------------------------------

    Molecular point group: d2h
    Geometry (in Angstrom), charge = 1, multiplicity = 3:

       Center              X                  Y                   Z               Mass
    ------------   -----------------  -----------------  -----------------  -----------------
           N          0.000000000000     0.000000000000     0.000000000000    14.003074004780

  Charge       = 1
  Multiplicity = 3
  Basis Set: AUG-CC-PV(5+D)Z
    Blend: AUG-CC-PV(5+D)Z

    Orbital Energies (a.u.)
    -----------------------

    Alpha Occupied:

       1Ag   -16.320283     2Ag    -1.622867     1B3u   -1.116577
       1B1u   -1.116577

    Alpha Virtual:

       1B2u   -0.460433     3Ag    -0.132778     2B3u   -0.090843
       2B1u   -0.090843     2B2u   -0.084544     4Ag     0.054869
       1B1g    0.055484     1B3g    0.055484     5Ag     0.057898
       1B2g    0.057898     3B1u    0.131781     3B3u    0.131781
       3B2u    0.154198     6Ag     0.253086     4B2u    0.492881
       4B1u    0.493974     4B3u    0.493974     5B2u    0.497286
       1Au     0.497286     5B1u    0.502896     5B3u    0.502896
       7Ag     0.581618     2B2g    0.581618     2B1g    0.588785
       2B3g    0.588785     8Ag     0.592037     6B1u    0.924966
       6B3u    0.924966     6B2u    0.964738     9Ag     1.755265
      10Ag     1.779843     3B3g    1.781172     3B1g    1.781172
       3B2g    1.785178    11Ag     1.785178     4B3g    1.791891
       4B1g    1.791891    12Ag     1.801322     4B2g    1.801322
       7B2u    1.885592     7B1u    1.887693     7B3u    1.887693
       2Au     1.894016     8B2u    1.894016     8B1u    1.904577
       8B3u    1.904577     5B2g    2.009370    13Ag     2.009370
       5B1g    2.023419     5B3g    2.023419    14Ag     2.029706
       9B3u    3.315779     9B1u    3.315779     9B2u    3.337132
      10B2u    4.282757    10B1u    4.284221    10B3u    4.284221
       3Au     4.288618    11B2u    4.288618    11B1u    4.295971
      11B3u    4.295971    12B2u    4.306315     4Au     4.306315
      12B1u    4.319700    12B3u    4.319700    15Ag     5.150002
       6B3g    5.152624     6B1g    5.152624     6B2g    5.160499
      16Ag     5.160499     7B1g    5.173645     7B3g    5.173645
      17Ag     5.192072     7B2g    5.192072    13B2u    5.262235
      13B1u    5.265785    13B3u    5.265785     5Au     5.276440
      14B2u    5.276440    14B1u    5.294218    14B3u    5.294218
      18Ag     5.946024     8B1g    5.947307     8B3g    5.947307
       8B2g    5.951847    19Ag     5.951847    20Ag     7.389805
      15B2u   11.570628    15B3u   11.577889    15B1u   11.577889
      16B2u   11.806548    16B1u   11.809204    16B3u   11.809204
       6Au    11.817179    17B2u   11.817179    17B1u   11.830505
      17B3u   11.830505     7Au    11.849229    18B2u   11.849229
      18B1u   11.873421    18B3u   11.873421    19B2u   13.876235
      19B1u   13.881700    19B3u   13.881700     8Au    13.898138
      20B2u   13.898138    20B1u   13.925688    20B3u   13.925688
      21Ag    14.009667     9B1g   14.013707     9B3g   14.013707
      22Ag    14.025842     9B2g   14.025842    10B1g   14.046113
      10B3g   14.046113    23Ag    14.074588    10B2g   14.074588
      24Ag    16.820737    11B1g   16.828799    11B3g   16.828799
      11B2g   16.853303    25Ag    16.853303    26Ag    45.569774

    Beta Occupied:

       1Ag   -16.246289     2Ag    -1.305848

    Beta Virtual:

       1B2u   -0.404663     1B1u   -0.327727     1B3u   -0.327727
       3Ag    -0.122960     2B2u   -0.080953     2B3u   -0.072491
       2B1u   -0.072491     4Ag     0.058105     1B3g    0.060294
       1B1g    0.060294     5Ag     0.067178     1B2g    0.067178
       3B2u    0.164809     3B1u    0.187089     3B3u    0.187089
       6Ag     0.282977     4B2u    0.495142     4B1u    0.496592
       4B3u    0.496592     5B2u    0.500964     1Au     0.500964
       5B1u    0.508394     5B3u    0.508394     7Ag     0.616006
       2B1g    0.623519     2B3g    0.623519     8Ag     0.647955
       2B2g    0.647955     6B2u    0.985857     6B1u    1.031360
       6B3u    1.031360     9Ag     1.784767     3B3g    1.786470
       3B1g    1.786470     3B2g    1.791602    10Ag     1.791602
       4B1g    1.800238     4B3g    1.800238    11Ag     1.812514
       4B2g    1.812514    12Ag     1.824915     7B2u    1.903082
       7B1u    1.907721     7B3u    1.907721     2Au     1.921732
       8B2u    1.921732     8B1u    1.945527     8B3u    1.945527
      13Ag     2.085330     5B1g    2.100389     5B3g    2.100389
       5B2g    2.149157    14Ag     2.149157     9B2u    3.366383
       9B1u    3.437296     9B3u    3.437296    10B2u    4.290615
      10B1u    4.292465    10B3u    4.292465     3Au     4.298024
      11B2u    4.298024    11B1u    4.307330    11B3u    4.307330
      12B2u    4.320444     4Au     4.320444    12B1u    4.337454
      12B3u    4.337454    15Ag     5.170442     6B3g    5.174497
       6B1g    5.174497     6B2g    5.186710    16Ag     5.186710
       7B1g    5.207232     7B3g    5.207232    17Ag     5.236357
       7B2g    5.236357    13B2u    5.302736    13B1u    5.311476
      13B3u    5.311476     5Au     5.337896    14B2u    5.337896
      14B1u    5.382736    14B3u    5.382736    18Ag     6.008180
       8B1g    6.028906     8B3g    6.028906     8B2g    6.093776
      19Ag     6.093776    20Ag     7.463727    15B2u   11.595635
      15B3u   11.666214    15B1u   11.666214    16B2u   11.828696
      16B1u   11.832315    16B3u   11.832315     6Au    11.843191
      17B2u   11.843191    17B1u   11.861380    17B3u   11.861380
       7Au    11.886978    18B2u   11.886978    18B1u   11.920122
      18B3u   11.920122    19B2u   13.921345    19B1u   13.932108
      19B3u   13.932108     8Au    13.964579    20B2u   13.964579
      20B1u   14.019408    20B3u   14.019408    21Ag    14.044897
       9B1g   14.051238     9B3g   14.051238    22Ag    14.070309
       9B2g   14.070309    10B1g   14.102258    10B3g   14.102258
      23Ag    14.147348    10B2g   14.147348    24Ag    16.863104
      11B1g   16.883540    11B3g   16.883540    11B2g   16.946093
      25Ag    16.946093    26Ag    45.599516

    Final Occupation by Irrep:
             Ag   B1g   B2g   B3g    Au   B1u   B2u   B3u
    DOCC [     2,    0,    0,    0,    0,    0,    0,    0 ]
    SOCC [     0,    0,    0,    0,    0,    1,    0,    1 ]

  Energy converged.

  @UHF Final Energy:   -53.89386081740792

   => Energetics <=

    Nuclear Repulsion Energy =              0.0000000000000000
    One-Electron Energy =                 -70.0592811333025480
    Two-Electron Energy =                  16.1654203158946288
    Total Energy =                        -53.8938608174079192

  UHF NO Occupations:
  HONO-2 :    2 Ag 1.9965091
  HONO-1 :    1B3u 1.0000000
  HONO-0 :    1B1u 1.0000000
  LUNO+0 :    3 Ag 0.0034909
  LUNO+1 :    4 Ag 0.0000040
  LUNO+2 :    5 Ag 0.0000000
  LUNO+3 :    6 Ag 0.0000000

Properties will be evaluated at   0.000000,   0.000000,   0.000000 Bohr

Properties computed using the SCF density matrix

  Nuclear Dipole Moment: (a.u.)
     X:     0.0000      Y:     0.0000      Z:     0.0000

  Electronic Dipole Moment: (a.u.)
     X:     0.0000      Y:     0.0000      Z:     0.0000

  Dipole Moment: (a.u.)
     X:     0.0000      Y:     0.0000      Z:     0.0000     Total:     0.0000

  Dipole Moment: (Debye)
     X:     0.0000      Y:     0.0000      Z:     0.0000     Total:     0.0000

*** tstop() called on cqc05 at Fri Aug 21 06:51:19 2020
Module time:
	user time   =       5.91 seconds =       0.10 minutes
	system time =       0.15 seconds =       0.00 minutes
	total time  =          5 seconds =       0.08 minutes
Total time:
	user time   =       5.91 seconds =       0.10 minutes
	system time =       0.15 seconds =       0.00 minutes
	total time  =          5 seconds =       0.08 minutes

*** tstart() called on cqc05
*** at Fri Aug 21 06:51:19 2020

	Wfn Parameters:
	--------------------
	Wavefunction         = CCSD
	Number of irreps     = 8
	Number of MOs        = 127
	Number of active MOs = 126
	AO-Basis             = NONE
	Semicanonical        = false
	Reference            = UHF
	Print Level          = 1

	IRREP	# MOs	# FZDC	# DOCC	# SOCC	# VIRT	# FZVR
	-----	-----	------	------	------	------	------
	 Ag	   26	    1	    1	    0	    24	    0
	 B1g	   11	    0	    0	    0	    11	    0
	 B2g	   11	    0	    0	    0	    11	    0
	 B3g	   11	    0	    0	    0	    11	    0
	 Au	   8	    0	    0	    0	    8	    0
	 B1u	   20	    0	    0	    1	    19	    0
	 B2u	   20	    0	    0	    0	    20	    0
	 B3u	   20	    0	    0	    1	    19	    0
	Transforming integrals...
	IWL integrals will be deleted.
	(OO|OO)...
	Presorting SO-basis two-electron integrals.
	Sorting File: SO Ints (nn|nn) nbuckets = 1
	Transforming the one-electron integrals and constructing Fock matrices
	Starting AA/AB first half-transformation.
	Sorting AA/AB half-transformed integrals.
	Starting BB first half-transformation.
	Sorting BB half-transformed integrals.
	First half integral transformation complete.
	Starting AA second half-transformation.
	Starting AB second half-transformation.
	Starting BB second half-transformation.
	Two-electron integral transformation complete.
	(OO|OV)...
	Starting AA second half-transformation.
	Starting AB second half-transformation.
	Starting BB second half-transformation.
	Two-electron integral transformation complete.
	(OO|VV)...
	Starting AA second half-transformation.
	Starting AB second half-transformation.
	Starting BB second half-transformation.
	Two-electron integral transformation complete.
	(OV|OO)...
	Starting AA/AB first half-transformation.
	Sorting AA/AB half-transformed integrals.
	Starting BB first half-transformation.
	Sorting BB half-transformed integrals.
	First half integral transformation complete.
	Starting AA second half-transformation.
	Starting AB second half-transformation.
	Starting BB second half-transformation.
	Two-electron integral transformation complete.
	(OV|OV)...
	Starting AA second half-transformation.
	Starting AB second half-transformation.
	Starting BB second half-transformation.
	Two-electron integral transformation complete.
	(OV|VV)...
	Starting AA second half-transformation.
	Starting AB second half-transformation.
	Starting BB second half-transformation.
	Two-electron integral transformation complete.
	(VV|OO)...
	Starting AA/AB first half-transformation.
	Sorting AA/AB half-transformed integrals.
	Starting BB first half-transformation.
	Sorting BB half-transformed integrals.
	First half integral transformation complete.
	Starting AA second half-transformation.
	Starting AB second half-transformation.
	Starting BB second half-transformation.
	Two-electron integral transformation complete.
	(VV|OV)...
	Starting AA second half-transformation.
	Starting AB second half-transformation.
	Starting BB second half-transformation.
	Two-electron integral transformation complete.
	(VV|VV)...
	Starting AA second half-transformation.
	Starting AB second half-transformation.
	Starting BB second half-transformation.
	Two-electron integral transformation complete.
	Frozen core energy     =    -44.73400465568940

	Size of irrep 0 of <AB|CD> integrals:      1.002 (MW) /      8.016 (MB)
	Size of irrep 1 of <AB|CD> integrals:      0.841 (MW) /      6.727 (MB)
	Size of irrep 2 of <AB|CD> integrals:      0.821 (MW) /      6.567 (MB)
	Size of irrep 3 of <AB|CD> integrals:      0.841 (MW) /      6.727 (MB)
	Size of irrep 4 of <AB|CD> integrals:      0.689 (MW) /      5.511 (MB)
	Size of irrep 5 of <AB|CD> integrals:      0.947 (MW) /      7.574 (MB)
	Size of irrep 6 of <AB|CD> integrals:      0.972 (MW) /      7.778 (MB)
	Size of irrep 7 of <AB|CD> integrals:      0.947 (MW) /      7.574 (MB)
	Total:                                     7.059 (MW) /     56.473 (MB)

	Size of irrep 0 of <ab|cd> integrals:      1.080 (MW) /      8.636 (MB)
	Size of irrep 1 of <ab|cd> integrals:      0.893 (MW) /      7.144 (MB)
	Size of irrep 2 of <ab|cd> integrals:      0.893 (MW) /      7.144 (MB)
	Size of irrep 3 of <ab|cd> integrals:      0.893 (MW) /      7.144 (MB)
	Size of irrep 4 of <ab|cd> integrals:      0.726 (MW) /      5.807 (MB)
	Size of irrep 5 of <ab|cd> integrals:      1.016 (MW) /      8.129 (MB)
	Size of irrep 6 of <ab|cd> integrals:      1.016 (MW) /      8.129 (MB)
	Size of irrep 7 of <ab|cd> integrals:      1.016 (MW) /      8.129 (MB)
	Total:                                     7.533 (MW) /     60.262 (MB)

	Size of irrep 0 of <Ab|Cd> integrals:      4.679 (MW) /     37.429 (MB)
	Size of irrep 1 of <Ab|Cd> integrals:      3.467 (MW) /     27.736 (MB)
	Size of irrep 2 of <Ab|Cd> integrals:      3.422 (MW) /     27.380 (MB)
	Size of irrep 3 of <Ab|Cd> integrals:      3.467 (MW) /     27.736 (MB)
	Size of irrep 4 of <Ab|Cd> integrals:      2.829 (MW) /     22.633 (MB)
	Size of irrep 5 of <Ab|Cd> integrals:      3.924 (MW) /     31.395 (MB)
	Size of irrep 6 of <Ab|Cd> integrals:      3.976 (MW) /     31.808 (MB)
	Size of irrep 7 of <Ab|Cd> integrals:      3.924 (MW) /     31.395 (MB)
	Total:                                    29.689 (MW) /    237.512 (MB)

	Size of irrep 0 of <IA|BC> integrals:      0.132 (MW) /      1.054 (MB)
	Size of irrep 1 of <IA|BC> integrals:      0.072 (MW) /      0.572 (MB)
	Size of irrep 2 of <IA|BC> integrals:      0.089 (MW) /      0.710 (MB)
	Size of irrep 3 of <IA|BC> integrals:      0.072 (MW) /      0.572 (MB)
	Size of irrep 4 of <IA|BC> integrals:      0.050 (MW) /      0.398 (MB)
	Size of irrep 5 of <IA|BC> integrals:      0.105 (MW) /      0.841 (MB)
	Size of irrep 6 of <IA|BC> integrals:      0.083 (MW) /      0.663 (MB)
	Size of irrep 7 of <IA|BC> integrals:      0.105 (MW) /      0.841 (MB)
	Total:                                     0.706 (MW) /      5.651 (MB)

	Size of irrep 0 of <ia|bc> integrals:      0.053 (MW) /      0.423 (MB)
	Size of irrep 1 of <ia|bc> integrals:      0.021 (MW) /      0.166 (MB)
	Size of irrep 2 of <ia|bc> integrals:      0.021 (MW) /      0.166 (MB)
	Size of irrep 3 of <ia|bc> integrals:      0.021 (MW) /      0.166 (MB)
	Size of irrep 4 of <ia|bc> integrals:      0.014 (MW) /      0.109 (MB)
	Size of irrep 5 of <ia|bc> integrals:      0.040 (MW) /      0.323 (MB)
	Size of irrep 6 of <ia|bc> integrals:      0.040 (MW) /      0.323 (MB)
	Size of irrep 7 of <ia|bc> integrals:      0.040 (MW) /      0.323 (MB)
	Total:                                     0.250 (MW) /      1.999 (MB)

	Size of irrep 0 of <Ia|Bc> integrals:      0.138 (MW) /      1.107 (MB)
	Size of irrep 1 of <Ia|Bc> integrals:      0.073 (MW) /      0.581 (MB)
	Size of irrep 2 of <Ia|Bc> integrals:      0.094 (MW) /      0.755 (MB)
	Size of irrep 3 of <Ia|Bc> integrals:      0.073 (MW) /      0.581 (MB)
	Size of irrep 4 of <Ia|Bc> integrals:      0.050 (MW) /      0.404 (MB)
	Size of irrep 5 of <Ia|Bc> integrals:      0.109 (MW) /      0.872 (MB)
	Size of irrep 6 of <Ia|Bc> integrals:      0.084 (MW) /      0.670 (MB)
	Size of irrep 7 of <Ia|Bc> integrals:      0.109 (MW) /      0.872 (MB)
	Total:                                     0.730 (MW) /      5.841 (MB)

	Size of irrep 0 of <iA|bC> integrals:      0.052 (MW) /      0.415 (MB)
	Size of irrep 1 of <iA|bC> integrals:      0.020 (MW) /      0.164 (MB)
	Size of irrep 2 of <iA|bC> integrals:      0.020 (MW) /      0.163 (MB)
	Size of irrep 3 of <iA|bC> integrals:      0.020 (MW) /      0.164 (MB)
	Size of irrep 4 of <iA|bC> integrals:      0.013 (MW) /      0.108 (MB)
	Size of irrep 5 of <iA|bC> integrals:      0.038 (MW) /      0.301 (MB)
	Size of irrep 6 of <iA|bC> integrals:      0.040 (MW) /      0.319 (MB)
	Size of irrep 7 of <iA|bC> integrals:      0.038 (MW) /      0.301 (MB)
	Total:                                     0.242 (MW) /      1.935 (MB)

	Size of irrep 0 of tIjAb amplitudes:       0.002 (MW) /      0.017 (MB)
	Size of irrep 1 of tIjAb amplitudes:       0.000 (MW) /      0.000 (MB)
	Size of irrep 2 of tIjAb amplitudes:       0.000 (MW) /      0.000 (MB)
	Size of irrep 3 of tIjAb amplitudes:       0.000 (MW) /      0.000 (MB)
	Size of irrep 4 of tIjAb amplitudes:       0.000 (MW) /      0.000 (MB)
	Size of irrep 5 of tIjAb amplitudes:       0.002 (MW) /      0.016 (MB)
	Size of irrep 6 of tIjAb amplitudes:       0.000 (MW) /      0.000 (MB)
	Size of irrep 7 of tIjAb amplitudes:       0.002 (MW) /      0.016 (MB)
	Total:                                     0.006 (MW) /      0.049 (MB)

	Nuclear Rep. energy          =      0.00000000000000
	SCF energy                   =    -53.89386081740792
	One-electron energy          =    -13.15784353601487
	Two-electron (AA) energy     =      1.83896478721866
	Two-electron (BB) energy     =      0.00000000000000
	Two-electron (AB) energy     =      2.15902258707770
	Two-electron energy          =      3.99798737429636
	Reference energy             =    -53.89386081740791

*** tstop() called on cqc05 at Fri Aug 21 06:51:23 2020
Module time:
	user time   =       2.39 seconds =       0.04 minutes
	system time =       1.37 seconds =       0.02 minutes
	total time  =          4 seconds =       0.07 minutes
Total time:
	user time   =       8.30 seconds =       0.14 minutes
	system time =       1.52 seconds =       0.03 minutes
	total time  =          9 seconds =       0.15 minutes

*** tstart() called on cqc05
*** at Fri Aug 21 06:51:23 2020

            **************************
            *                        *
            *        CCENERGY        *
            *                        *
            **************************

    Nuclear Rep. energy (wfn)     =    0.000000000000000
    SCF energy          (wfn)     =  -53.893860817407919
    Reference energy    (file100) =  -53.893860817407905

    Input parameters:
    -----------------
    Wave function   =     CCSD
    Reference wfn   =     UHF
    Brueckner       =     No
    Memory (Mbytes) =     250000.0
    Maxiter         =     50
    R_Convergence   =     1.0e-07
    E_Convergence   =     1.0e-06
    Restart         =     Yes
    DIIS            =     Yes
    AO Basis        =     NONE
    ABCD            =     NEW
    Cache Level     =     2
    Cache Type      =     LRU
    Print Level     =     1
    Num. of threads =     4
    # Amps to Print =     10
    Print MP2 Amps? =     No
    Analyze T2 Amps =     No
    Print Pair Ener =     No
    Local CC        =     No
    SCS-MP2         =     False
    SCSN-MP2        =     False
    SCS-CCSD        =     False

MP2 correlation energy -0.0803487034413323
                Solving CC Amplitude Equations
                ------------------------------
  Iter             Energy              RMS        T1Diag      D1Diag    New D1Diag    D2Diag
  ----     ---------------------    ---------   ----------  ----------  ----------   --------
     0        -0.080348703441332    0.000e+00    0.000000    0.000000    0.000000    0.000000
     1        -0.092266591759940    3.893e-02    0.005199    0.000000    0.000000    0.000000
     2        -0.098861387954289    1.768e-02    0.008953    0.000000    0.000000    0.000000
     3        -0.099123983133760    3.476e-03    0.009612    0.000000    0.000000    0.000000
     4        -0.099172799961221    5.923e-04    0.009593    0.000000    0.000000    0.000000
     5        -0.099162866987782    1.158e-04    0.009566    0.000000    0.000000    0.000000
     6        -0.099164607002261    2.272e-05    0.009561    0.000000    0.000000    0.000000
     7        -0.099164798876729    4.701e-06    0.009561    0.000000    0.000000    0.000000
     8        -0.099164674901089    1.282e-06    0.009561    0.000000    0.000000    0.000000

      * MP2 total energy                      =  -53.974209520849236
      * CCSD total energy                     =  -53.993025508588630
*** Psi4 exiting successfully. Buy a developer a beer!
