                               Psi4 1.2a1.dev939

  ==> Input File <==

--------------------------------------------------------------------------
# Any line starting with the # character is a comment line

memory 32000 mb

molecule molecule {
-1 1
C          0.0000000000        0.0000000000       -0.0725642828
H          1.0380267415        0.0000000000        0.2882346175
H         -0.5190133708        0.8989575280        0.2882346175
H         -0.5190133708       -0.8989575280        0.2882346175
}

set {
  reference rhf
  basis aug-cc-pv(D+d)z
  scf_type OUT_OF_CORE
  freeze_core true
}

energy('ccsd')
--------------------------------------------------------------------------

    Molecular point group: cs

    Geometry (in Angstrom), charge = -1, multiplicity = 1:

       Center              X                  Y                   Z               Mass
    ------------   -----------------  -----------------  -----------------  -----------------
           C         -0.000000000003     0.072610796291     0.000000000000    12.000000000000
           H         -0.519013370764    -0.288188104009     0.898957527982     1.007825032070
           H         -0.519013370764    -0.288188104009    -0.898957527982     1.007825032070
           H          1.038026741568    -0.288188104009     0.000000000000     1.007825032070

  Charge       = -1
  Multiplicity = 1
  Basis Set: AUG-CC-PV(D+D)Z
    Blend: AUG-CC-PV(D+D)Z

    Orbital Energies (a.u.)
    -----------------------

    Doubly Occupied:

       1Ap   -10.944152     2Ap    -0.623811     1App   -0.268462
       3Ap    -0.268462     4Ap    -0.021157

  @RHF Final Energy:   -39.51170232709645

   => Energetics <=

    Nuclear Repulsion Energy =              9.5505782315552512
    One-Electron Energy =                 -73.8724743178279937
    Two-Electron Energy =                  24.8101937591762933
    Total Energy =                        -39.5117023270964509
      * MP2 total energy                      =  -39.695696788027576
      * CCSD total energy                     =  -39.713333265427387
*** Psi4 exiting successfully. Buy a developer a beer!
