                               Psi4 1.2a1.dev939

  ==> Input File <==

--------------------------------------------------------------------------
# Any line starting with the # character is a comment line
memory 250000 mb
molecule molecule{
-1 1
C          0.0000000000        0.0000000000       -0.0725642828
H          1.0380267415        0.0000000000        0.2882346175
H         -0.5190133708        0.8989575280        0.2882346175
H         -0.5190133708       -0.8989575280        0.2882346175

}

set {
  reference rhf
  basis aug-cc-pv(6+d)z
  scf_type OUT_OF_CORE
  freeze_core true
}

energy('ccsd')
--------------------------------------------------------------------------

    Molecular point group: cs

    Geometry (in Angstrom), charge = -1, multiplicity = 1:

       Center              X                  Y                   Z               Mass
    ------------   -----------------  -----------------  -----------------  -----------------
           C         -0.000000000003     0.072610796291     0.000000000000    12.000000000000
           H         -0.519013370764    -0.288188104009     0.898957527982     1.007825032070
           H         -0.519013370764    -0.288188104009    -0.898957527982     1.007825032070
           H          1.038026741568    -0.288188104009     0.000000000000     1.007825032070

  Charge       = -1
  Multiplicity = 1
  Basis Set: AUG-CC-PV(6+D)Z
    Blend: AUG-CC-PV(6+D)Z

    Orbital Energies (a.u.)
    -----------------------

    Doubly Occupied:

       1Ap   -10.941170     2Ap    -0.627489     3Ap    -0.273972
       1App   -0.273972     4Ap    -0.023929

  @RHF Final Energy:   -39.52672628763746

   => Energetics <=

    Nuclear Repulsion Energy =              9.5505782315552530
    One-Electron Energy =                 -73.8735411147511059
    Two-Electron Energy =                  24.7962365955584012
    PCM Polarization Energy =               0.0000000000000000
    Total Energy =                        -39.5267262876374588
      * MP2 total energy                      =  -39.759936542482812
      * CCSD total energy                     =  -39.767584525278103
*** Psi4 exiting successfully. Buy a developer a beer!
