                               Psi4 1.2a1.dev939

  ==> Input File <==

--------------------------------------------------------------------------
# Any line starting with the # character is a comment line

memory 32000 mb

molecule molecule {
-1 1
C          0.0000000000        0.0000000000       -0.0725642828
H          1.0380267415        0.0000000000        0.2882346175
H         -0.5190133708        0.8989575280        0.2882346175
H         -0.5190133708       -0.8989575280        0.2882346175
}

set {
  reference rhf

  basis aug-cc-pv(5+d)z
  scf_type OUT_OF_CORE
  freeze_core true
}

energy('ccsd')
--------------------------------------------------------------------------

    Molecular point group: cs

    Geometry (in Angstrom), charge = -1, multiplicity = 1:

       Center              X                  Y                   Z               Mass
    ------------   -----------------  -----------------  -----------------  -----------------
           C         -0.000000000003     0.072610796291     0.000000000000    12.000000000000
           H         -0.519013370764    -0.288188104009     0.898957527982     1.007825032070
           H         -0.519013370764    -0.288188104009    -0.898957527982     1.007825032070
           H          1.038026741568    -0.288188104009     0.000000000000     1.007825032070

  Charge       = -1
  Multiplicity = 1
  Basis Set: AUG-CC-PV(5+D)Z
    Blend: AUG-CC-PV(5+D)Z

    Orbital Energies (a.u.)
    -----------------------

    Doubly Occupied:

       1Ap   -10.940191     2Ap    -0.626688     1App   -0.273166
       3Ap    -0.273166     4Ap    -0.023572

  @RHF Final Energy:   -39.52657529543895

   => Energetics <=

    Nuclear Repulsion Energy =              9.5505782315552512
    One-Electron Energy =                 -73.8807459874449961
    Two-Electron Energy =                  24.8035924604507940
    Total Energy =                        -39.5265752954389527
      * MP2 total energy                      =  -39.757945107039824
      * CCSD total energy                     =  -39.766491411592320
*** Psi4 exiting successfully. Buy a developer a beer!
