                               Psi4 1.2a1.dev939

  ==> Input File <==

--------------------------------------------------------------------------
# Any line starting with the # character is a comment line

memory 32000 mb

molecule molecule {
-1 1
C          0.0000000000        0.0000000000       -0.0725642828
H          1.0380267415        0.0000000000        0.2882346175
H         -0.5190133708        0.8989575280        0.2882346175
H         -0.5190133708       -0.8989575280        0.2882346175
}

set {
  reference rhf
  basis aug-cc-pv(T+d)z
  scf_type OUT_OF_CORE
  freeze_core true
}

energy('ccsd')
--------------------------------------------------------------------------

    Molecular point group: cs

    Geometry (in Angstrom), charge = -1, multiplicity = 1:

       Center              X                  Y                   Z               Mass
    ------------   -----------------  -----------------  -----------------  -----------------
           C         -0.000000000003     0.072610796291     0.000000000000    12.000000000000
           H         -0.519013370764    -0.288188104009     0.898957527982     1.007825032070
           H         -0.519013370764    -0.288188104009    -0.898957527982     1.007825032070
           H          1.038026741568    -0.288188104009     0.000000000000     1.007825032070

  Charge       = -1
  Multiplicity = 1
  Basis Set: AUG-CC-PV(T+D)Z
    Blend: AUG-CC-PV(T+D)Z

    Orbital Energies (a.u.)
    -----------------------

    Doubly Occupied:

       1Ap   -10.938437     2Ap    -0.624461     3Ap    -0.270594
       1App   -0.270594     4Ap    -0.022359

  @RHF Final Energy:   -39.52332489588819

   => Energetics <=

    Nuclear Repulsion Energy =              9.5505782315552512
    One-Electron Energy =                 -73.8949111951843634
    Two-Electron Energy =                  24.8210080677409266
    Total Energy =                        -39.5233248958881873
      * MP2 total energy                      =  -39.740230668097354
      * CCSD total energy                     =  -39.753409002243117
*** Psi4 exiting successfully. Buy a developer a beer!
