                               Psi4 1.2a1.dev938

  ==> Input File <==

--------------------------------------------------------------------------
# Any line starting with the # character is a comment line
memory 250000 mb
molecule molecule{
1 3
F          0.0000000000        0.0000000000        0.0000000000
}

set {
  reference uhf
  basis aug-cc-pv(t+d)z
  scf_type OUT_OF_CORE
  freeze_core true
}

energy('ccsd')
--------------------------------------------------------------------------

    Molecular point group: d2h
    Geometry (in Angstrom), charge = 1, multiplicity = 3:

       Center              X                  Y                   Z               Mass
    ------------   -----------------  -----------------  -----------------  -----------------
           F          0.000000000000     0.000000000000     0.000000000000    18.998403224000

  Charge       = 1
  Multiplicity = 3
  Basis Set: AUG-CC-PV(T+D)Z
    Blend: AUG-CC-PV(T+D)Z

    Orbital Energies (a.u.)
    -----------------------

    Alpha Occupied:

       1Ag   -27.196403     2Ag    -2.402173     1B2u   -1.536629
       1B3u   -1.536629     1B1u   -1.415352

    Alpha Virtual:

       3Ag    -0.122383     2B2u   -0.070329     2B3u   -0.070329
       2B1u   -0.060947     1B1g    0.444043     4Ag     0.444043
       1B2g    0.463686     1B3g    0.463686     5Ag     0.470369
       3B2u    0.614141     3B3u    0.614141     3B1u    0.655138
       6Ag     1.078323     2B1g    2.160691     7Ag     2.160691
       2B3g    2.215824     2B2g    2.215824     8Ag     2.235344
       4B3u    2.342084     4B2u    2.342084     1Au     2.368902
       4B1u    2.368902     5B3u    2.385174     5B2u    2.385174
       5B1u    2.390638     6B3u    4.404165     6B2u    4.404165
       6B1u    4.493954     7B2u    8.001455     7B3u    8.001455
       2Au     8.057944     7B1u    8.057944     8B2u    8.092312
       8B3u    8.092312     8B1u    8.103855     3B1g    8.387160
       9Ag     8.387160     3B3g    8.470533     3B2g    8.470533
      10Ag     8.498461    11Ag     9.750954

    Beta Occupied:

       1Ag   -27.090128     2Ag    -1.995835     1B1u   -1.310059

    Beta Virtual:

       1B2u   -0.494471     1B3u   -0.494471     3Ag    -0.108003
       2B1u   -0.057775     2B2u   -0.041313     2B3u   -0.041313
       1B1g    0.481736     4Ag     0.481736     1B2g    0.481759
       1B3g    0.481759     5Ag     0.482173     3B1u    0.677719
       3B2u    0.749172     3B3u    0.749172     6Ag     1.159713
       7Ag     2.303720     2B2g    2.310212     2B3g    2.310212
       2B1g    2.333507     8Ag     2.333507     4B2u    2.384313
       4B3u    2.384313     1Au     2.396564     4B1u    2.396564
       5B3u    2.403877     5B2u    2.403877     5B1u    2.406306
       6B1u    4.546203     6B2u    4.619463     6B3u    4.619463
       7B2u    8.129855     7B3u    8.129855     2Au     8.147867
       7B1u    8.147867     8B2u    8.158598     8B3u    8.158598
       8B1u    8.162162     9Ag     8.604573     3B2g    8.609083
       3B3g    8.609083     3B1g    8.623739    10Ag     8.623739
      11Ag     9.856789

    Final Occupation by Irrep:
             Ag   B1g   B2g   B3g    Au   B1u   B2u   B3u
    DOCC [     2,    0,    0,    0,    0,    1,    0,    0 ]
    SOCC [     0,    0,    0,    0,    0,    0,    1,    1 ]

  Energy converged.

  @UHF Final Energy:   -98.83087726156751

   => Energetics <=

    Nuclear Repulsion Energy =              0.0000000000000000
    One-Electron Energy =                -133.1785458855768809
    Two-Electron Energy =                  34.3476686240093656
    Total Energy =                        -98.8308772615675082

  UHF NO Occupations:
  HONO-2 :    2 Ag 1.9979270
  HONO-1 :    1B3u 1.0000000
  HONO-0 :    1B2u 1.0000000
  LUNO+0 :    3 Ag 0.0020730
  LUNO+1 :    2B1u 0.0005700
  LUNO+2 :    4 Ag 0.0000023
  LUNO+3 :    5 Ag 0.0000000

Properties will be evaluated at   0.000000,   0.000000,   0.000000 Bohr

Properties computed using the SCF density matrix

  Nuclear Dipole Moment: (a.u.)
     X:     0.0000      Y:     0.0000      Z:     0.0000

  Electronic Dipole Moment: (a.u.)
     X:     0.0000      Y:     0.0000      Z:     0.0000

  Dipole Moment: (a.u.)
     X:     0.0000      Y:     0.0000      Z:     0.0000     Total:     0.0000

  Dipole Moment: (Debye)
     X:     0.0000      Y:     0.0000      Z:     0.0000     Total:     0.0000

*** tstop() called on cqc05 at Thu Aug 20 20:11:25 2020
Module time:
	user time   =       0.36 seconds =       0.01 minutes
	system time =       0.01 seconds =       0.00 minutes
	total time  =          1 seconds =       0.02 minutes
Total time:
	user time   =       0.36 seconds =       0.01 minutes
	system time =       0.01 seconds =       0.00 minutes
	total time  =          1 seconds =       0.02 minutes

*** tstart() called on cqc05
*** at Thu Aug 20 20:11:25 2020

	Wfn Parameters:
	--------------------
	Wavefunction         = CCSD
	Number of irreps     = 8
	Number of MOs        = 46
	Number of active MOs = 45
	AO-Basis             = NONE
	Semicanonical        = false
	Reference            = UHF
	Print Level          = 1

	IRREP	# MOs	# FZDC	# DOCC	# SOCC	# VIRT	# FZVR
	-----	-----	------	------	------	------	------
	 Ag	   11	    1	    1	    0	    9	    0
	 B1g	   3	    0	    0	    0	    3	    0
	 B2g	   3	    0	    0	    0	    3	    0
	 B3g	   3	    0	    0	    0	    3	    0
	 Au	   2	    0	    0	    0	    2	    0
	 B1u	   8	    0	    1	    0	    7	    0
	 B2u	   8	    0	    0	    1	    7	    0
	 B3u	   8	    0	    0	    1	    7	    0
	Transforming integrals...
	IWL integrals will be deleted.
	(OO|OO)...
	Presorting SO-basis two-electron integrals.
	Sorting File: SO Ints (nn|nn) nbuckets = 1
	Transforming the one-electron integrals and constructing Fock matrices
	Starting AA/AB first half-transformation.
	Sorting AA/AB half-transformed integrals.
	Starting BB first half-transformation.
	Sorting BB half-transformed integrals.
	First half integral transformation complete.
	Starting AA second half-transformation.
	Starting AB second half-transformation.
	Starting BB second half-transformation.
	Two-electron integral transformation complete.
	(OO|OV)...
	Starting AA second half-transformation.
	Starting AB second half-transformation.
	Starting BB second half-transformation.
	Two-electron integral transformation complete.
	(OO|VV)...
	Starting AA second half-transformation.
	Starting AB second half-transformation.
	Starting BB second half-transformation.
	Two-electron integral transformation complete.
	(OV|OO)...
	Starting AA/AB first half-transformation.
	Sorting AA/AB half-transformed integrals.
	Starting BB first half-transformation.
	Sorting BB half-transformed integrals.
	First half integral transformation complete.
	Starting AA second half-transformation.
	Starting AB second half-transformation.
	Starting BB second half-transformation.
	Two-electron integral transformation complete.
	(OV|OV)...
	Starting AA second half-transformation.
	Starting AB second half-transformation.
	Starting BB second half-transformation.
	Two-electron integral transformation complete.
	(OV|VV)...
	Starting AA second half-transformation.
	Starting AB second half-transformation.
	Starting BB second half-transformation.
	Two-electron integral transformation complete.
	(VV|OO)...
	Starting AA/AB first half-transformation.
	Sorting AA/AB half-transformed integrals.
	Starting BB first half-transformation.
	Sorting BB half-transformed integrals.
	First half integral transformation complete.
	Starting AA second half-transformation.
	Starting AB second half-transformation.
	Starting BB second half-transformation.
	Two-electron integral transformation complete.
	(VV|OV)...
	Starting AA second half-transformation.
	Starting AB second half-transformation.
	Starting BB second half-transformation.
	Two-electron integral transformation complete.
	(VV|VV)...
	Starting AA second half-transformation.
	Starting AB second half-transformation.
	Starting BB second half-transformation.
	Two-electron integral transformation complete.
	Frozen core energy     =    -75.47815622048819

	Size of irrep 0 of <AB|CD> integrals:      0.012 (MW) /      0.095 (MB)
	Size of irrep 1 of <AB|CD> integrals:      0.010 (MW) /      0.078 (MB)
	Size of irrep 2 of <AB|CD> integrals:      0.010 (MW) /      0.078 (MB)
	Size of irrep 3 of <AB|CD> integrals:      0.010 (MW) /      0.078 (MB)
	Size of irrep 4 of <AB|CD> integrals:      0.007 (MW) /      0.052 (MB)
	Size of irrep 5 of <AB|CD> integrals:      0.012 (MW) /      0.099 (MB)
	Size of irrep 6 of <AB|CD> integrals:      0.012 (MW) /      0.099 (MB)
	Size of irrep 7 of <AB|CD> integrals:      0.012 (MW) /      0.099 (MB)
	Total:                                     0.085 (MW) /      0.678 (MB)

	Size of irrep 0 of <ab|cd> integrals:      0.015 (MW) /      0.121 (MB)
	Size of irrep 1 of <ab|cd> integrals:      0.013 (MW) /      0.104 (MB)
	Size of irrep 2 of <ab|cd> integrals:      0.012 (MW) /      0.093 (MB)
	Size of irrep 3 of <ab|cd> integrals:      0.012 (MW) /      0.093 (MB)
	Size of irrep 4 of <ab|cd> integrals:      0.008 (MW) /      0.061 (MB)
	Size of irrep 5 of <ab|cd> integrals:      0.014 (MW) /      0.110 (MB)
	Size of irrep 6 of <ab|cd> integrals:      0.015 (MW) /      0.121 (MB)
	Size of irrep 7 of <ab|cd> integrals:      0.015 (MW) /      0.121 (MB)
	Total:                                     0.103 (MW) /      0.824 (MB)

	Size of irrep 0 of <Ab|Cd> integrals:      0.075 (MW) /      0.596 (MB)
	Size of irrep 1 of <Ab|Cd> integrals:      0.045 (MW) /      0.360 (MB)
	Size of irrep 2 of <Ab|Cd> integrals:      0.043 (MW) /      0.343 (MB)
	Size of irrep 3 of <Ab|Cd> integrals:      0.043 (MW) /      0.343 (MB)
	Size of irrep 4 of <Ab|Cd> integrals:      0.028 (MW) /      0.226 (MB)
	Size of irrep 5 of <Ab|Cd> integrals:      0.052 (MW) /      0.416 (MB)
	Size of irrep 6 of <Ab|Cd> integrals:      0.055 (MW) /      0.438 (MB)
	Size of irrep 7 of <Ab|Cd> integrals:      0.055 (MW) /      0.438 (MB)
	Total:                                     0.395 (MW) /      3.159 (MB)

	Size of irrep 0 of <IA|BC> integrals:      0.008 (MW) /      0.062 (MB)
	Size of irrep 1 of <IA|BC> integrals:      0.004 (MW) /      0.030 (MB)
	Size of irrep 2 of <IA|BC> integrals:      0.004 (MW) /      0.030 (MB)
	Size of irrep 3 of <IA|BC> integrals:      0.004 (MW) /      0.030 (MB)
	Size of irrep 4 of <IA|BC> integrals:      0.002 (MW) /      0.014 (MB)
	Size of irrep 5 of <IA|BC> integrals:      0.005 (MW) /      0.039 (MB)
	Size of irrep 6 of <IA|BC> integrals:      0.005 (MW) /      0.039 (MB)
	Size of irrep 7 of <IA|BC> integrals:      0.005 (MW) /      0.039 (MB)
	Total:                                     0.035 (MW) /      0.284 (MB)

	Size of irrep 0 of <ia|bc> integrals:      0.005 (MW) /      0.037 (MB)
	Size of irrep 1 of <ia|bc> integrals:      0.001 (MW) /      0.009 (MB)
	Size of irrep 2 of <ia|bc> integrals:      0.002 (MW) /      0.019 (MB)
	Size of irrep 3 of <ia|bc> integrals:      0.002 (MW) /      0.019 (MB)
	Size of irrep 4 of <ia|bc> integrals:      0.001 (MW) /      0.007 (MB)
	Size of irrep 5 of <ia|bc> integrals:      0.004 (MW) /      0.030 (MB)
	Size of irrep 6 of <ia|bc> integrals:      0.003 (MW) /      0.022 (MB)
	Size of irrep 7 of <ia|bc> integrals:      0.003 (MW) /      0.022 (MB)
	Total:                                     0.021 (MW) /      0.164 (MB)

	Size of irrep 0 of <Ia|Bc> integrals:      0.009 (MW) /      0.070 (MB)
	Size of irrep 1 of <Ia|Bc> integrals:      0.004 (MW) /      0.036 (MB)
	Size of irrep 2 of <Ia|Bc> integrals:      0.004 (MW) /      0.033 (MB)
	Size of irrep 3 of <Ia|Bc> integrals:      0.004 (MW) /      0.033 (MB)
	Size of irrep 4 of <Ia|Bc> integrals:      0.002 (MW) /      0.015 (MB)
	Size of irrep 5 of <Ia|Bc> integrals:      0.005 (MW) /      0.040 (MB)
	Size of irrep 6 of <Ia|Bc> integrals:      0.005 (MW) /      0.043 (MB)
	Size of irrep 7 of <Ia|Bc> integrals:      0.005 (MW) /      0.043 (MB)
	Total:                                     0.039 (MW) /      0.313 (MB)

	Size of irrep 0 of <iA|bC> integrals:      0.004 (MW) /      0.035 (MB)
	Size of irrep 1 of <iA|bC> integrals:      0.001 (MW) /      0.008 (MB)
	Size of irrep 2 of <iA|bC> integrals:      0.002 (MW) /      0.017 (MB)
	Size of irrep 3 of <iA|bC> integrals:      0.002 (MW) /      0.017 (MB)
	Size of irrep 4 of <iA|bC> integrals:      0.001 (MW) /      0.007 (MB)
	Size of irrep 5 of <iA|bC> integrals:      0.004 (MW) /      0.029 (MB)
	Size of irrep 6 of <iA|bC> integrals:      0.002 (MW) /      0.019 (MB)
	Size of irrep 7 of <iA|bC> integrals:      0.002 (MW) /      0.019 (MB)
	Total:                                     0.019 (MW) /      0.150 (MB)

	Size of irrep 0 of tIjAb amplitudes:       0.001 (MW) /      0.004 (MB)
	Size of irrep 1 of tIjAb amplitudes:       0.000 (MW) /      0.000 (MB)
	Size of irrep 2 of tIjAb amplitudes:       0.000 (MW) /      0.002 (MB)
	Size of irrep 3 of tIjAb amplitudes:       0.000 (MW) /      0.002 (MB)
	Size of irrep 4 of tIjAb amplitudes:       0.000 (MW) /      0.000 (MB)
	Size of irrep 5 of tIjAb amplitudes:       0.000 (MW) /      0.004 (MB)
	Size of irrep 6 of tIjAb amplitudes:       0.000 (MW) /      0.002 (MB)
	Size of irrep 7 of tIjAb amplitudes:       0.000 (MW) /      0.002 (MB)
	Total:                                     0.002 (MW) /      0.015 (MB)

	Nuclear Rep. energy          =      0.00000000000000
	SCF energy                   =    -98.83087726156751
	One-electron energy          =    -36.50876493351499
	Two-electron (AA) energy     =      4.91092530401092
	Two-electron (BB) energy     =      0.72885512344029
	Two-electron (AB) energy     =      7.51626346498450
	Two-electron energy          =     13.15604389243571
	Reference energy             =    -98.83087726156747

*** tstop() called on cqc05 at Thu Aug 20 20:11:25 2020
Module time:
	user time   =       0.08 seconds =       0.00 minutes
	system time =       0.08 seconds =       0.00 minutes
	total time  =          0 seconds =       0.00 minutes
Total time:
	user time   =       0.44 seconds =       0.01 minutes
	system time =       0.09 seconds =       0.00 minutes
	total time  =          1 seconds =       0.02 minutes

*** tstart() called on cqc05
*** at Thu Aug 20 20:11:25 2020

            **************************
            *                        *
            *        CCENERGY        *
            *                        *
            **************************

    Nuclear Rep. energy (wfn)     =    0.000000000000000
    SCF energy          (wfn)     =  -98.830877261567508
    Reference energy    (file100) =  -98.830877261567466

    Input parameters:
    -----------------
    Wave function   =     CCSD
    Reference wfn   =     UHF
    Brueckner       =     No
    Memory (Mbytes) =     250000.0
    Maxiter         =     50
    R_Convergence   =     1.0e-07
    E_Convergence   =     1.0e-06
    Restart         =     Yes
    DIIS            =     Yes
    AO Basis        =     NONE
    ABCD            =     NEW
    Cache Level     =     2
    Cache Type      =     LRU
    Print Level     =     1
    Num. of threads =     4
    # Amps to Print =     10
    Print MP2 Amps? =     No
    Analyze T2 Amps =     No
    Print Pair Ener =     No
    Local CC        =     No
    SCS-MP2         =     False
    SCSN-MP2        =     False
    SCS-CCSD        =     False

MP2 correlation energy -0.1450111142564044
                Solving CC Amplitude Equations
                ------------------------------
  Iter             Energy              RMS        T1Diag      D1Diag    New D1Diag    D2Diag
  ----     ---------------------    ---------   ----------  ----------  ----------   --------
     0        -0.145011114256404    0.000e+00    0.000000    0.000000    0.000000    0.000000
     1        -0.157246154996847    2.156e-02    0.004177    0.000000    0.000000    0.000000
     2        -0.160193962436007    6.909e-03    0.005722    0.000000    0.000000    0.000000
     3        -0.160289487780896    1.801e-03    0.006065    0.000000    0.000000    0.000000
     4        -0.160277059503722    5.811e-04    0.006062    0.000000    0.000000    0.000000
     5        -0.160287601581174    1.793e-04    0.006058    0.000000    0.000000    0.000000
     6        -0.160288209216857    3.883e-05    0.006056    0.000000    0.000000    0.000000
     7        -0.160287937565558    8.845e-06    0.006056    0.000000    0.000000    0.000000
     8        -0.160287912447799    2.401e-06    0.006056    0.000000    0.000000    0.000000
     9        -0.160287917676261    4.206e-07    0.006056    0.000000    0.000000    0.000000
    10        -0.160287916441755    9.242e-08    0.006056    0.000000    0.000000    0.000000
    10        -0.160287916441755    9.242e-08    0.006056    0.000000    0.000000    0.000000

    Iterations converged.

    CCSD corr. energy   =   -0.160287916441755
    PPL corr. energy    =    0.025110214319109
    OS PPL corr. energy =    0.020843136028608
    SS PPL corr. energy =    0.004267078290500
    Largest TIA Amplitudes:
              1  21        -0.0041066644
              0   0         0.0040496170
              1  20        -0.0040012902
              2  27        -0.0038744471
              3  34        -0.0038744471
              2  28        -0.0038204615
              3  35        -0.0038204615
              0   3        -0.0031462908
              0   2         0.0021258503
              0   5        -0.0018268426

    Largest Tia Amplitudes:
              0   4         0.0056551741
              0   2        -0.0045693193
              1  20        -0.0030372103
              1  24         0.0028927575
              0   3         0.0022872304
              1  21        -0.0018364477
              0   6         0.0017007102
              0   8        -0.0015171381
              1  23         0.0010180399
              0   0        -0.0007199202

    Largest TIJAB Amplitudes:
      3   1  35  21        -0.0161391095
      2   1  28  21        -0.0161391095
      3   2  35  28        -0.0156645391
      3   2  10   4         0.0141972072
      3   1  13   5         0.0129532049
      2   1  16   5         0.0129532049
      3   2  38  31        -0.0105820760
      3   1  38  24        -0.0103223686
      2   1  31  24        -0.0103223686
      1   0  21   3        -0.0099863432

    Largest Tijab Amplitudes:
      1   0  27  16         0.0131879758
      1   0  35  13         0.0131879758
      1   0  27  15         0.0113211494
      1   0  35  12         0.0113211494
      1   0  21   3        -0.0098829860
      1   0  24   3        -0.0069050157

      * MP2 total energy                      =  -98.975888375823871
      * CCSD total energy                     =  -98.991165178009226
*** Psi4 exiting successfully. Buy a developer a beer!
