                               Psi4 1.2a1.dev938

  ==> Input File <==

--------------------------------------------------------------------------
# Any line starting with the # character is a comment line
memory 250000 mb
molecule molecule{
1 3
F          0.0000000000        0.0000000000        0.0000000000
}

set {
  reference uhf
  basis aug-cc-pv(d+d)z
  scf_type OUT_OF_CORE
  freeze_core true
}

energy('ccsd')
--------------------------------------------------------------------------

    Molecular point group: d2h
    Geometry (in Angstrom), charge = 1, multiplicity = 3:

       Center              X                  Y                   Z               Mass
    ------------   -----------------  -----------------  -----------------  -----------------
           F          0.000000000000     0.000000000000     0.000000000000    18.998403224000

  Charge       = 1
  Multiplicity = 3
  Basis Set: AUG-CC-PV(D+D)Z
    Blend: AUG-CC-PV(D+D)Z

    Orbital Energies (a.u.)
    -----------------------

    Alpha Occupied:

       1Ag   -27.209191     2Ag    -2.406326     1B3u   -1.536371
       1B2u   -1.536371     1B1u   -1.416426

    Alpha Virtual:

       3Ag    -0.107430     2B3u   -0.054061     2B2u   -0.054061
       2B1u   -0.042131     4Ag     0.789638     1B1g    0.789638
       1B3g    0.823697     1B2g    0.823697     5Ag     0.835128
       3B3u    1.002037     3B2u    1.002037     3B1u    1.062680
       6Ag     1.619176     7Ag     4.014633     2B1g    4.014633
       2B3g    4.089688     2B2g    4.089688     8Ag     4.116104

    Beta Occupied:

       1Ag   -27.100309     2Ag    -2.001892     1B1u   -1.307652

    Beta Virtual:

       1B3u   -0.500035     1B2u   -0.500035     3Ag    -0.089505
       2B1u   -0.037722     2B3u   -0.017071     2B2u   -0.017071
       4Ag     0.866027     1B3g    0.867847     1B2g    0.867847
       1B1g    0.875774     5Ag     0.875774     3B1u    1.101621
       3B3u    1.205441     3B2u    1.205441     6Ag     1.720718
       7Ag     4.219572     2B3g    4.227315     2B2g    4.227315
       8Ag     4.254448     2B1g    4.254448

    Final Occupation by Irrep:
             Ag   B1g   B2g   B3g    Au   B1u   B2u   B3u
    DOCC [     2,    0,    0,    0,    0,    1,    0,    0 ]
    SOCC [     0,    0,    0,    0,    0,    0,    1,    1 ]

  Energy converged.

  @UHF Final Energy:   -98.80166505424521

   => Energetics <=

    Nuclear Repulsion Energy =              0.0000000000000000
    One-Electron Energy =                -133.0887931870049670
    Two-Electron Energy =                  34.2871281327597615
    Total Energy =                        -98.8016650542452055

  UHF NO Occupations:
  HONO-2 :    2 Ag 1.9981002
  HONO-1 :    1B2u 1.0000000
  HONO-0 :    1B3u 1.0000000
  LUNO+0 :    3 Ag 0.0018998
  LUNO+1 :    2B1u 0.0005143
  LUNO+2 :    4 Ag 0.0000007
  LUNO+3 :    5 Ag 0.0000000

Properties will be evaluated at   0.000000,   0.000000,   0.000000 Bohr

Properties computed using the SCF density matrix

  Nuclear Dipole Moment: (a.u.)
     X:     0.0000      Y:     0.0000      Z:     0.0000

  Electronic Dipole Moment: (a.u.)
     X:     0.0000      Y:     0.0000      Z:     0.0000

  Dipole Moment: (a.u.)
     X:     0.0000      Y:     0.0000      Z:     0.0000     Total:     0.0000

  Dipole Moment: (Debye)
     X:     0.0000      Y:     0.0000      Z:     0.0000     Total:     0.0000

*** tstop() called on cqc05 at Thu Aug 20 19:56:40 2020
Module time:
	user time   =       0.23 seconds =       0.00 minutes
	system time =       0.00 seconds =       0.00 minutes
	total time  =          0 seconds =       0.00 minutes
Total time:
	user time   =       0.23 seconds =       0.00 minutes
	system time =       0.00 seconds =       0.00 minutes
	total time  =          0 seconds =       0.00 minutes

*** tstart() called on cqc05
*** at Thu Aug 20 19:56:40 2020

	Wfn Parameters:
	--------------------
	Wavefunction         = CCSD
	Number of irreps     = 8
	Number of MOs        = 23
	Number of active MOs = 22
	AO-Basis             = NONE
	Semicanonical        = false
	Reference            = UHF
	Print Level          = 1

	IRREP	# MOs	# FZDC	# DOCC	# SOCC	# VIRT	# FZVR
	-----	-----	------	------	------	------	------
	 Ag	   8	    1	    1	    0	    6	    0
	 B1g	   2	    0	    0	    0	    2	    0
	 B2g	   2	    0	    0	    0	    2	    0
	 B3g	   2	    0	    0	    0	    2	    0
	 Au	   0	    0	    0	    0	    0	    0
	 B1u	   3	    0	    1	    0	    2	    0
	 B2u	   3	    0	    0	    1	    2	    0
	 B3u	   3	    0	    0	    1	    2	    0
	Transforming integrals...
	IWL integrals will be deleted.
	(OO|OO)...
	Presorting SO-basis two-electron integrals.
	Sorting File: SO Ints (nn|nn) nbuckets = 1
	Transforming the one-electron integrals and constructing Fock matrices
	Starting AA/AB first half-transformation.
	Sorting AA/AB half-transformed integrals.
	Starting BB first half-transformation.
	Sorting BB half-transformed integrals.
	First half integral transformation complete.
	Starting AA second half-transformation.
	Starting AB second half-transformation.
	Starting BB second half-transformation.
	Two-electron integral transformation complete.
	(OO|OV)...
	Starting AA second half-transformation.
	Starting AB second half-transformation.
	Starting BB second half-transformation.
	Two-electron integral transformation complete.
	(OO|VV)...
	Starting AA second half-transformation.
	Starting AB second half-transformation.
	Starting BB second half-transformation.
	Two-electron integral transformation complete.
	(OV|OO)...
	Starting AA/AB first half-transformation.
	Sorting AA/AB half-transformed integrals.
	Starting BB first half-transformation.
	Sorting BB half-transformed integrals.
	First half integral transformation complete.
	Starting AA second half-transformation.
	Starting AB second half-transformation.
	Starting BB second half-transformation.
	Two-electron integral transformation complete.
	(OV|OV)...
	Starting AA second half-transformation.
	Starting AB second half-transformation.
	Starting BB second half-transformation.
	Two-electron integral transformation complete.
	(OV|VV)...
	Starting AA second half-transformation.
	Starting AB second half-transformation.
	Starting BB second half-transformation.
	Two-electron integral transformation complete.
	(VV|OO)...
	Starting AA/AB first half-transformation.
	Sorting AA/AB half-transformed integrals.
	Starting BB first half-transformation.
	Sorting BB half-transformed integrals.
	First half integral transformation complete.
	Starting AA second half-transformation.
	Starting AB second half-transformation.
	Starting BB second half-transformation.
	Two-electron integral transformation complete.
	(VV|OV)...
	Starting AA second half-transformation.
	Starting AB second half-transformation.
	Starting BB second half-transformation.
	Two-electron integral transformation complete.
	(VV|VV)...
	Starting AA second half-transformation.
	Starting AB second half-transformation.
	Starting BB second half-transformation.
	Two-electron integral transformation complete.
	Frozen core energy     =    -75.47765180564301

	Size of irrep 0 of <AB|CD> integrals:      0.000 (MW) /      0.004 (MB)
	Size of irrep 1 of <AB|CD> integrals:      0.000 (MW) /      0.003 (MB)
	Size of irrep 2 of <AB|CD> integrals:      0.000 (MW) /      0.003 (MB)
	Size of irrep 3 of <AB|CD> integrals:      0.000 (MW) /      0.003 (MB)
	Size of irrep 4 of <AB|CD> integrals:      0.000 (MW) /      0.001 (MB)
	Size of irrep 5 of <AB|CD> integrals:      0.000 (MW) /      0.003 (MB)
	Size of irrep 6 of <AB|CD> integrals:      0.000 (MW) /      0.003 (MB)
	Size of irrep 7 of <AB|CD> integrals:      0.000 (MW) /      0.003 (MB)
	Total:                                     0.003 (MW) /      0.024 (MB)

	Size of irrep 0 of <ab|cd> integrals:      0.001 (MW) /      0.005 (MB)
	Size of irrep 1 of <ab|cd> integrals:      0.001 (MW) /      0.005 (MB)
	Size of irrep 2 of <ab|cd> integrals:      0.000 (MW) /      0.004 (MB)
	Size of irrep 3 of <ab|cd> integrals:      0.000 (MW) /      0.004 (MB)
	Size of irrep 4 of <ab|cd> integrals:      0.000 (MW) /      0.002 (MB)
	Size of irrep 5 of <ab|cd> integrals:      0.001 (MW) /      0.005 (MB)
	Size of irrep 6 of <ab|cd> integrals:      0.001 (MW) /      0.006 (MB)
	Size of irrep 7 of <ab|cd> integrals:      0.001 (MW) /      0.006 (MB)
	Total:                                     0.005 (MW) /      0.037 (MB)

	Size of irrep 0 of <Ab|Cd> integrals:      0.004 (MW) /      0.033 (MB)
	Size of irrep 1 of <Ab|Cd> integrals:      0.002 (MW) /      0.015 (MB)
	Size of irrep 2 of <Ab|Cd> integrals:      0.002 (MW) /      0.014 (MB)
	Size of irrep 3 of <Ab|Cd> integrals:      0.002 (MW) /      0.014 (MB)
	Size of irrep 4 of <Ab|Cd> integrals:      0.001 (MW) /      0.006 (MB)
	Size of irrep 5 of <Ab|Cd> integrals:      0.002 (MW) /      0.015 (MB)
	Size of irrep 6 of <Ab|Cd> integrals:      0.002 (MW) /      0.018 (MB)
	Size of irrep 7 of <Ab|Cd> integrals:      0.002 (MW) /      0.018 (MB)
	Total:                                     0.017 (MW) /      0.135 (MB)

	Size of irrep 0 of <IA|BC> integrals:      0.001 (MW) /      0.006 (MB)
	Size of irrep 1 of <IA|BC> integrals:      0.000 (MW) /      0.002 (MB)
	Size of irrep 2 of <IA|BC> integrals:      0.000 (MW) /      0.002 (MB)
	Size of irrep 3 of <IA|BC> integrals:      0.000 (MW) /      0.002 (MB)
	Size of irrep 4 of <IA|BC> integrals:      0.000 (MW) /      0.001 (MB)
	Size of irrep 5 of <IA|BC> integrals:      0.000 (MW) /      0.004 (MB)
	Size of irrep 6 of <IA|BC> integrals:      0.000 (MW) /      0.004 (MB)
	Size of irrep 7 of <IA|BC> integrals:      0.000 (MW) /      0.004 (MB)
	Total:                                     0.003 (MW) /      0.024 (MB)

	Size of irrep 0 of <ia|bc> integrals:      0.001 (MW) /      0.004 (MB)
	Size of irrep 1 of <ia|bc> integrals:      0.000 (MW) /      0.001 (MB)
	Size of irrep 2 of <ia|bc> integrals:      0.000 (MW) /      0.002 (MB)
	Size of irrep 3 of <ia|bc> integrals:      0.000 (MW) /      0.002 (MB)
	Size of irrep 4 of <ia|bc> integrals:      0.000 (MW) /      0.001 (MB)
	Size of irrep 5 of <ia|bc> integrals:      0.000 (MW) /      0.003 (MB)
	Size of irrep 6 of <ia|bc> integrals:      0.000 (MW) /      0.002 (MB)
	Size of irrep 7 of <ia|bc> integrals:      0.000 (MW) /      0.002 (MB)
	Total:                                     0.002 (MW) /      0.017 (MB)

	Size of irrep 0 of <Ia|Bc> integrals:      0.001 (MW) /      0.007 (MB)
	Size of irrep 1 of <Ia|Bc> integrals:      0.000 (MW) /      0.003 (MB)
	Size of irrep 2 of <Ia|Bc> integrals:      0.000 (MW) /      0.002 (MB)
	Size of irrep 3 of <Ia|Bc> integrals:      0.000 (MW) /      0.002 (MB)
	Size of irrep 4 of <Ia|Bc> integrals:      0.000 (MW) /      0.001 (MB)
	Size of irrep 5 of <Ia|Bc> integrals:      0.001 (MW) /      0.004 (MB)
	Size of irrep 6 of <Ia|Bc> integrals:      0.001 (MW) /      0.005 (MB)
	Size of irrep 7 of <Ia|Bc> integrals:      0.001 (MW) /      0.005 (MB)
	Total:                                     0.004 (MW) /      0.030 (MB)

	Size of irrep 0 of <iA|bC> integrals:      0.001 (MW) /      0.004 (MB)
	Size of irrep 1 of <iA|bC> integrals:      0.000 (MW) /      0.001 (MB)
	Size of irrep 2 of <iA|bC> integrals:      0.000 (MW) /      0.001 (MB)
	Size of irrep 3 of <iA|bC> integrals:      0.000 (MW) /      0.001 (MB)
	Size of irrep 4 of <iA|bC> integrals:      0.000 (MW) /      0.000 (MB)
	Size of irrep 5 of <iA|bC> integrals:      0.000 (MW) /      0.003 (MB)
	Size of irrep 6 of <iA|bC> integrals:      0.000 (MW) /      0.002 (MB)
	Size of irrep 7 of <iA|bC> integrals:      0.000 (MW) /      0.002 (MB)
	Total:                                     0.002 (MW) /      0.014 (MB)

	Size of irrep 0 of tIjAb amplitudes:       0.000 (MW) /      0.001 (MB)
	Size of irrep 1 of tIjAb amplitudes:       0.000 (MW) /      0.000 (MB)
	Size of irrep 2 of tIjAb amplitudes:       0.000 (MW) /      0.000 (MB)
	Size of irrep 3 of tIjAb amplitudes:       0.000 (MW) /      0.000 (MB)
	Size of irrep 4 of tIjAb amplitudes:       0.000 (MW) /      0.000 (MB)
	Size of irrep 5 of tIjAb amplitudes:       0.000 (MW) /      0.001 (MB)
	Size of irrep 6 of tIjAb amplitudes:       0.000 (MW) /      0.000 (MB)
	Size of irrep 7 of tIjAb amplitudes:       0.000 (MW) /      0.000 (MB)
	Total:                                     0.000 (MW) /      0.003 (MB)

	Nuclear Rep. energy          =      0.00000000000000
	SCF energy                   =    -98.80166505424521
	One-electron energy          =    -36.44298984679197
	Two-electron (AA) energy     =      4.89807624050608
	Two-electron (BB) energy     =      0.72694012891999
	Two-electron (AB) energy     =      7.49396022876369
	Two-electron energy          =     13.11897659818976
	Reference energy             =    -98.80166505424521

*** tstop() called on cqc05 at Thu Aug 20 19:56:40 2020
Module time:
	user time   =       0.02 seconds =       0.00 minutes
	system time =       0.03 seconds =       0.00 minutes
	total time  =          0 seconds =       0.00 minutes
Total time:
	user time   =       0.25 seconds =       0.00 minutes
	system time =       0.03 seconds =       0.00 minutes
	total time  =          0 seconds =       0.00 minutes

*** tstart() called on cqc05
*** at Thu Aug 20 19:56:40 2020

            **************************
            *                        *
            *        CCENERGY        *
            *                        *
            **************************

    Nuclear Rep. energy (wfn)     =    0.000000000000000
    SCF energy          (wfn)     =  -98.801665054245206
    Reference energy    (file100) =  -98.801665054245206

    Input parameters:
    -----------------
    Wave function   =     CCSD
    Reference wfn   =     UHF
    Brueckner       =     No
    Memory (Mbytes) =     250000.0
    Maxiter         =     50
    R_Convergence   =     1.0e-07
    E_Convergence   =     1.0e-06
    Restart         =     Yes
    DIIS            =     Yes
    AO Basis        =     NONE
    ABCD            =     NEW
    Cache Level     =     2
    Cache Type      =     LRU
    Print Level     =     1
    Num. of threads =     4
    # Amps to Print =     10
    Print MP2 Amps? =     No
    Analyze T2 Amps =     No
    Print Pair Ener =     No
    Local CC        =     No
    SCS-MP2         =     False
    SCSN-MP2        =     False
    SCS-CCSD        =     False

MP2 correlation energy -0.1031668166256213
                Solving CC Amplitude Equations
                ------------------------------
  Iter             Energy              RMS        T1Diag      D1Diag    New D1Diag    D2Diag
  ----     ---------------------    ---------   ----------  ----------  ----------   --------
     0        -0.103166816625621    0.000e+00    0.000000    0.000000    0.000000    0.000000
     1        -0.115003722569566    2.417e-02    0.005530    0.000000    0.000000    0.000000
     2        -0.118028594665275    7.351e-03    0.007123    0.000000    0.000000    0.000000
     3        -0.118221599925270    2.047e-03    0.007491    0.000000    0.000000    0.000000
     4        -0.118209202842230    6.757e-04    0.007474    0.000000    0.000000    0.000000
     5        -0.118219178463983    2.030e-04    0.007472    0.000000    0.000000    0.000000
     6        -0.118219780433745    4.302e-05    0.007470    0.000000    0.000000    0.000000
     7        -0.118219570051444    9.709e-06    0.007470    0.000000    0.000000    0.000000
     8        -0.118219560227321    2.260e-06    0.007471    0.000000    0.000000    0.000000
     9        -0.118219547425434    3.428e-07    0.007471    0.000000    0.000000    0.000000
    10        -0.118219545918104    7.166e-08    0.007471    0.000000    0.000000    0.000000
    10        -0.118219545918104    7.166e-08    0.007471    0.000000    0.000000    0.000000

    Iterations converged.

    CCSD corr. energy   =   -0.118219545918104
    PPL corr. energy    =    0.017030024667112
    OS PPL corr. energy =    0.014112933091696
    SS PPL corr. energy =    0.002917091575417
    Largest TIA Amplitudes:
              1  12        -0.0067816965
              1  13        -0.0058521546
              2  14        -0.0057149400
              3  16        -0.0057149400
              0   0        -0.0049279496
              2  15        -0.0047645055
              3  17        -0.0047645055
              0   3        -0.0021722651
              0   2         0.0020398436
              0   5         0.0005987245

    Largest Tia Amplitudes:
              1  12        -0.0066078054
              0   1        -0.0055969529
              0   4         0.0038805062
              1  13        -0.0038578974
              0   3         0.0021385948
              0   0         0.0009310228

    Largest TIJAB Amplitudes:
      3   1  17  13        -0.0221640354
      2   1  15  13        -0.0221640354
      3   2  17  15        -0.0219014133
      3   2   6   1         0.0127578627
      3   2   7   4         0.0122209084
      3   1   8   2        -0.0121565209
      2   1  10   2        -0.0121565209
      1   0  13   3        -0.0121477238
      2   0  15   3        -0.0120022032
      3   0  17   3        -0.0120022032

    Largest Tijab Amplitudes:
      1   0  14  10        -0.0147156250
      1   0  17   8        -0.0147156250
      1   0  13   3        -0.0117116101
      1   0  14  11         0.0097570294
      1   0  17   9         0.0097570294
      1   0  13   0         0.0071197383
      1   0  12   3        -0.0052845464
      1   0  12   0         0.0039952158
      1   0  15  10        -0.0037340422
      1   0  18   8        -0.0037340422

    Largest TIjAb Amplitudes:
      1   1  13  13        -0.0400520804
      3   1  17  13        -0.0284350202
      2   1  15  13        -0.0284350202
      2   0   1  14         0.0278982657
      2   0   6  17        -0.0278982657
      3   0   1  17        -0.0278982657
      3   0   6  14        -0.0278982657
      1   0   8  17        -0.0272081060
      1   0  10  14        -0.0272081060
      2   0   4  14         0.0223055260

    SCF energy       (wfn)                    =  -98.801665054245206
    Reference energy (file100)                =  -98.801665054245206

      * MP2 total energy                      =  -98.904831870870822
      * CCSD total energy                     =  -98.919884600163314
*** Psi4 exiting successfully. Buy a developer a beer!
