                               Psi4 1.2a1.dev939

  ==> Input File <==

--------------------------------------------------------------------------
# Any line starting with the # character is a comment line
memory 250000 mb
molecule molecule{
1 3
F          0.0000000000        0.0000000000        0.0000000000
}

set {
  reference uhf
  basis aug-cc-pv(6+d)z
  scf_type OUT_OF_CORE
  freeze_core true
}

energy('ccsd')
--------------------------------------------------------------------------

    Molecular point group: d2h
    Geometry (in Angstrom), charge = 1, multiplicity = 3:

       Center              X                  Y                   Z               Mass
    ------------   -----------------  -----------------  -----------------  -----------------
           F          0.000000000000     0.000000000000     0.000000000000    18.998403224000

  Charge       = 1
  Multiplicity = 3
  Basis Set: AUG-CC-PV(6+D)Z
    Blend: AUG-CC-PV(6+D)Z

    Orbital Energies (a.u.)
    -----------------------

    Alpha Occupied:

       1Ag   -27.193508     2Ag    -2.400767     1B2u   -1.537226
       1B3u   -1.537226     1B1u   -1.415629

    Alpha Virtual:

       3Ag    -0.147595     2B2u   -0.097292     2B3u   -0.097292
       2B1u   -0.091471     3B2u    0.149242     3B3u    0.149242
       4Ag     0.153413     1B1g    0.153413     1B2g    0.161499
       1B3g    0.161499     3B1u    0.163045     5Ag     0.164228
       6Ag     0.355348     4B2u    0.747470     4B3u    0.747470
       4B1u    0.755295     1Au     0.755295     5B2u    0.759947
       5B3u    0.759947     5B1u    0.761516     7Ag     0.915621
       2B1g    0.915621     6B2u    0.927865     6B3u    0.927865
       2B2g    0.941534     2B3g    0.941534     8Ag     0.950634
       6B1u    0.963091     9Ag     2.079113     3B1g    2.164789
      10Ag     2.164789     3B3g    2.175683     3B2g    2.175683
      11Ag     2.183563     4B1g    2.183563     4B3g    2.188334
       4B2g    2.188334    12Ag     2.189932     7B2u    2.579724
       7B3u    2.579724     7B1u    2.602989     2Au     2.602989
       8B3u    2.616806     8B2u    2.616806     8B1u    2.621445
      13Ag     2.709879     5B1g    2.709879     5B3g    2.759443
       5B2g    2.759443    14Ag     2.776886     9B2u    3.107308
       9B3u    3.107308     9B1u    3.173475    10B2u    5.253010
      10B3u    5.253010    10B1u    5.268409     3Au     5.268409
      11B2u    5.280477    11B3u    5.280477    11B1u    5.289146
       4Au     5.289146    12B2u    5.294367    12B3u    5.294367
      12B1u    5.296111     6B1g    6.221074    15Ag     6.221074
       6B3g    6.248438     6B2g    6.248438    16Ag     6.268178
       7B1g    6.268178     7B3g    6.280110     7B2g    6.280110
      17Ag     6.284104    13B2u    6.628841    13B3u    6.628841
      13B1u    6.673801     5Au     6.673801    14B2u    6.700846
      14B3u    6.700846    14B1u    6.709889    18Ag     6.967294
       8B1g    6.967294     8B3g    7.036513     8B2g    7.036513
      19Ag     7.060373    20Ag     7.332978    15B2u    8.775861
      15B3u    8.775861    15B1u    8.868399    21Ag    11.444041
       9B1g   11.444041     9B2g   11.464757     9B3g   11.464757
      22Ag    11.481798    10B1g   11.481798    10B2g   11.495110
      10B3g   11.495110    23Ag    11.504649    11B1g   11.504649
      11B3g   11.510385    11B2g   11.510385    24Ag    11.512299
      16B3u   13.280989    16B2u   13.280989    16B1u   13.312076
       6Au    13.312076    17B2u   13.336425    17B3u   13.336425
      17B1u   13.353910     7Au    13.353910    18B2u   13.364439
      18B3u   13.364439    18B1u   13.367954    12B1g   15.628936
      25Ag    15.628936    12B3g   15.675811    12B2g   15.675811
      26Ag    15.709481    13B1g   15.709481    13B3g   15.729767
      13B2g   15.729767    27Ag    15.736544    19B2u   15.886430
      19B3u   15.886430    19B1u   15.948529     8Au    15.948529
      20B2u   15.986013    20B3u   15.986013    20B1u   15.998547
      28Ag    17.335297    14B1g   17.335297    14B3g   17.414649
      14B2g   17.414649    29Ag    17.441717    30Ag    24.318857
      21B2u   27.010854    21B3u   27.010854    21B1u   27.094128
      15B1g   28.502088    31Ag    28.502088    15B3g   28.537122
      15B2g   28.537122    16B1g   28.565911    32Ag    28.565911
      16B2g   28.588381    16B3g   28.588381    33Ag    28.604473
      17B1g   28.604473    17B3g   28.614145    17B2g   28.614145
      34Ag    28.617372    22B2u   34.115461    22B3u   34.115461
      22B1u   34.161411     9Au    34.161411    23B3u   34.197300
      23B2u   34.197300    23B1u   34.223016    10Au    34.223016
      24B2u   34.238478    24B3u   34.238478    24B1u   34.243638
      25B3u   38.323293    25B2u   38.323293    25B1u   38.386759
      11Au    38.386759    26B3u   38.425009    26B2u   38.425009
      26B1u   38.437789    18B1g   39.359441    35Ag    39.359441
      18B3g   39.414611    18B2g   39.414611    36Ag    39.454166
      19B1g   39.454166    19B2g   39.477960    19B3g   39.477960
      37Ag    39.485902    38Ag    43.104319    20B1g   43.104319
      20B3g   43.174795    20B2g   43.174795    39Ag    43.198584
      40Ag   126.390656

    Beta Occupied:

       1Ag   -27.088064     2Ag    -1.993931     1B1u   -1.310644

    Beta Virtual:

       1B2u   -0.493528     1B3u   -0.493528     3Ag    -0.137600
       2B1u   -0.089777     2B3u   -0.081491     2B2u   -0.081491
       4Ag     0.162377     1B1g    0.162377     1B3g    0.165533
       1B2g    0.165533     5Ag     0.166728     3B1u    0.169103
       3B3u    0.195480     3B2u    0.195480     6Ag     0.385004
       4B3u    0.751845     4B2u    0.751845     4B1u    0.757923
       1Au     0.757923     5B2u    0.761560     5B3u    0.761560
       5B1u    0.762772     7Ag     0.972981     2B3g    0.974132
       2B2g    0.974132     2B1g    0.979619     8Ag     0.979619
       6B1u    0.980777     6B2u    1.028872     6B3u    1.028872
       9Ag     2.147884     3B1g    2.171518    10Ag     2.171518
       3B2g    2.180427     3B3g    2.180427    11Ag     2.186816
       4B1g    2.186816     4B3g    2.190656     4B2g    2.190656
      12Ag     2.191937     7B3u    2.614573     7B2u    2.614573
       2Au     2.625908     7B1u    2.625908     8B2u    2.632614
       8B3u    2.632614     8B1u    2.634837    13Ag     2.836155
       5B3g    2.840277     5B2g    2.840277     5B1g    2.856078
      14Ag     2.856078     9B1u    3.205032     9B2u    3.244247
       9B3u    3.244247    10B2u    5.264938    10B3u    5.264938
       3Au     5.277647    10B1u    5.277647    11B3u    5.287574
      11B2u    5.287574    11B1u    5.294689     4Au     5.294689
      12B2u    5.298966    12B3u    5.298966    12B1u    5.300394
       6B1g    6.257931    15Ag     6.257931     6B2g    6.275985
       6B3g    6.275985    16Ag     6.288855     7B1g    6.288855
       7B3g    6.296559     7B2g    6.296559    17Ag     6.299123
      13B3u    6.717952    13B2u    6.717952     5Au     6.735619
      13B1u    6.735619    14B2u    6.746116    14B3u    6.746116
      14B1u    6.749599    18Ag     7.136397     8B2g    7.137990
       8B3g    7.137990     8B1g    7.141408    19Ag     7.141408
      20Ag     7.426830    15B1u    8.909022    15B3u    8.913315
      15B2u    8.913315    21Ag    11.463530     9B1g   11.463530
       9B3g   11.480771     9B2g   11.480771    22Ag    11.494929
      10B1g   11.494929    10B2g   11.505973    10B3g   11.505973
      23Ag    11.513879    11B1g   11.513879    11B3g   11.518630
      11B2g   11.518630    24Ag    11.520215    16B3u   13.320916
      16B2u   13.320916    16B1u   13.344110     6Au    13.344110
      17B3u   13.362222    17B2u   13.362222    17B1u   13.375197
       7Au    13.375197    18B2u   13.382998    18B3u   13.382998
      18B1u   13.385600    12B1g   15.706865    25Ag    15.706865
      12B2g   15.735955    12B3g   15.735955    26Ag    15.756719
      13B1g   15.756719    13B3g   15.769170    13B2g   15.769170
      27Ag    15.773318    19B3u   16.003270    19B2u   16.003270
       8Au    16.032052    19B1u   16.032052    20B3u   16.049318
      20B2u   16.049318    20B1u   16.055072    28Ag    17.479421
      14B1g   17.479421    14B2g   17.501511    14B3g   17.501511
      29Ag    17.509008    30Ag    24.393403    21B3u   27.107396
      21B2u   27.107396    21B1u   27.126388    31Ag    28.546696
      15B1g   28.546696    15B3g   28.574627    15B2g   28.574627
      16B1g   28.597555    32Ag    28.597555    16B2g   28.615435
      16B3g   28.615435    33Ag    28.628232    17B1g   28.628232
      17B3g   28.635920    17B2g   28.635920    34Ag    28.638485
      22B2u   34.183453    22B3u   34.183453    22B1u   34.217112
       9Au    34.217112    23B3u   34.243369    23B2u   34.243369
      23B1u   34.262165    10Au    34.262165    24B3u   34.273460
      24B2u   34.273460    24B1u   34.277227    25B3u   38.421690
      25B2u   38.421690    25B1u   38.458109    11Au    38.458109
      26B3u   38.480015    26B2u   38.480015    26B1u   38.487326
      18B1g   39.445268    35Ag    39.445268    18B2g   39.481962
      18B3g   39.481962    36Ag    39.508224    19B1g   39.508224
      19B2g   39.524001    19B3g   39.524001    37Ag    39.529263
      38Ag    43.195324    20B1g   43.195324    20B2g   43.230698
      20B3g   43.230698    39Ag    43.242593    40Ag   126.417201

    Final Occupation by Irrep:
             Ag   B1g   B2g   B3g    Au   B1u   B2u   B3u
    DOCC [     2,    0,    0,    0,    0,    1,    0,    0 ]
    SOCC [     0,    0,    0,    0,    0,    0,    1,    1 ]

  Energy converged.

  @UHF Final Energy:   -98.84114505079452

   => Energetics <=

    Nuclear Repulsion Energy =              0.0000000000000000
    One-Electron Energy =                -133.2052948432729238
    Two-Electron Energy =                  34.3641497924784005
    Total Energy =                        -98.8411450507945233

  UHF NO Occupations:
  HONO-2 :    2 Ag 1.9979037
  HONO-1 :    1B2u 1.0000000
  HONO-0 :    1B3u 1.0000000
  LUNO+0 :    3 Ag 0.0020963
  LUNO+1 :    2B1u 0.0005649
  LUNO+2 :    4 Ag 0.0000027
  LUNO+3 :    5 Ag 0.0000000

Properties will be evaluated at   0.000000,   0.000000,   0.000000 Bohr

Properties computed using the SCF density matrix

  Nuclear Dipole Moment: (a.u.)
     X:     0.0000      Y:     0.0000      Z:     0.0000

  Electronic Dipole Moment: (a.u.)
     X:     0.0000      Y:     0.0000      Z:     0.0000

  Dipole Moment: (a.u.)
     X:     0.0000      Y:     0.0000      Z:     0.0000     Total:     0.0000

  Dipole Moment: (Debye)
     X:     0.0000      Y:     0.0000      Z:     0.0000     Total:     0.0000

*** tstop() called on n412-071.vsc4.prov at Mon Nov  2 10:46:05 2020
Module time:
	user time   =     274.45 seconds =       4.57 minutes
	system time =       6.39 seconds =       0.11 minutes
	total time  =         74 seconds =       1.23 minutes
Total time:
	user time   =     274.45 seconds =       4.57 minutes
	system time =       6.39 seconds =       0.11 minutes
	total time  =         74 seconds =       1.23 minutes

*** tstart() called on n412-071.vsc4.prov
*** at Mon Nov  2 10:46:05 2020

	Wfn Parameters:
	--------------------
	Wavefunction         = CCSD
	Number of irreps     = 8
	Number of MOs        = 189
	Number of active MOs = 188
	AO-Basis             = NONE
	Semicanonical        = false
	Reference            = UHF
	Print Level          = 1

	IRREP	# MOs	# FZDC	# DOCC	# SOCC	# VIRT	# FZVR
	-----	-----	------	------	------	------	------
	 Ag	   40	    1	    1	    0	    38	    0
	 B1g	   20	    0	    0	    0	    20	    0
	 B2g	   20	    0	    0	    0	    20	    0
	 B3g	   20	    0	    0	    0	    20	    0
	 Au	   11	    0	    0	    0	    11	    0
	 B1u	   26	    0	    1	    0	    25	    0
	 B2u	   26	    0	    0	    1	    25	    0
	 B3u	   26	    0	    0	    1	    25	    0
	Transforming integrals...
	IWL integrals will be deleted.
	(OO|OO)...
	Presorting SO-basis two-electron integrals.
	Sorting File: SO Ints (nn|nn) nbuckets = 1
	Transforming the one-electron integrals and constructing Fock matrices
	Starting AA/AB first half-transformation.
	Sorting AA/AB half-transformed integrals.
	Starting BB first half-transformation.
	Sorting BB half-transformed integrals.
	First half integral transformation complete.
	Starting AA second half-transformation.
	Starting AB second half-transformation.
	Starting BB second half-transformation.
	Two-electron integral transformation complete.
	(OO|OV)...
	Starting AA second half-transformation.
	Starting AB second half-transformation.
	Starting BB second half-transformation.
	Two-electron integral transformation complete.
	(OO|VV)...
	Starting AA second half-transformation.
	Starting AB second half-transformation.
	Starting BB second half-transformation.
	Two-electron integral transformation complete.
	(OV|OO)...
	Starting AA/AB first half-transformation.
	Sorting AA/AB half-transformed integrals.
	Starting BB first half-transformation.
	Sorting BB half-transformed integrals.
	First half integral transformation complete.
	Starting AA second half-transformation.
	Starting AB second half-transformation.
	Starting BB second half-transformation.
	Two-electron integral transformation complete.
	(OV|OV)...
	Starting AA second half-transformation.
	Starting AB second half-transformation.
	Starting BB second half-transformation.
	Two-electron integral transformation complete.
	(OV|VV)...
	Starting AA second half-transformation.
	Starting AB second half-transformation.
	Starting BB second half-transformation.
	Two-electron integral transformation complete.
	(VV|OO)...
	Starting AA/AB first half-transformation.
	Sorting AA/AB half-transformed integrals.
	Starting BB first half-transformation.
	Sorting BB half-transformed integrals.
	First half integral transformation complete.
	Starting AA second half-transformation.
	Starting AB second half-transformation.
	Starting BB second half-transformation.
	Two-electron integral transformation complete.
	(VV|OV)...
	Starting AA second half-transformation.
	Starting AB second half-transformation.
	Starting BB second half-transformation.
	Two-electron integral transformation complete.
	(VV|VV)...
	Starting AA second half-transformation.
	Starting AB second half-transformation.
	Starting BB second half-transformation.
	Two-electron integral transformation complete.
	Frozen core energy     =    -75.47987594358723

	Size of irrep 0 of <AB|CD> integrals:      4.964 (MW) /     39.712 (MB)
	Size of irrep 1 of <AB|CD> integrals:      4.244 (MW) /     33.949 (MB)
	Size of irrep 2 of <AB|CD> integrals:      4.244 (MW) /     33.949 (MB)
	Size of irrep 3 of <AB|CD> integrals:      4.244 (MW) /     33.949 (MB)
	Size of irrep 4 of <AB|CD> integrals:      3.679 (MW) /     29.430 (MB)
	Size of irrep 5 of <AB|CD> integrals:      4.709 (MW) /     37.671 (MB)
	Size of irrep 6 of <AB|CD> integrals:      4.709 (MW) /     37.671 (MB)
	Size of irrep 7 of <AB|CD> integrals:      4.709 (MW) /     37.671 (MB)
	Total:                                    35.500 (MW) /    284.002 (MB)

	Size of irrep 0 of <ab|cd> integrals:      5.189 (MW) /     41.514 (MB)
	Size of irrep 1 of <ab|cd> integrals:      4.456 (MW) /     35.651 (MB)
	Size of irrep 2 of <ab|cd> integrals:      4.393 (MW) /     35.146 (MB)
	Size of irrep 3 of <ab|cd> integrals:      4.393 (MW) /     35.146 (MB)
	Size of irrep 4 of <ab|cd> integrals:      3.834 (MW) /     30.670 (MB)
	Size of irrep 5 of <ab|cd> integrals:      4.884 (MW) /     39.073 (MB)
	Size of irrep 6 of <ab|cd> integrals:      4.964 (MW) /     39.712 (MB)
	Size of irrep 7 of <ab|cd> integrals:      4.964 (MW) /     39.712 (MB)
	Total:                                    37.078 (MW) /    296.623 (MB)

	Size of irrep 0 of <Ab|Cd> integrals:     21.996 (MW) /    175.969 (MB)
	Size of irrep 1 of <Ab|Cd> integrals:     17.389 (MW) /    139.111 (MB)
	Size of irrep 2 of <Ab|Cd> integrals:     17.272 (MW) /    138.179 (MB)
	Size of irrep 3 of <Ab|Cd> integrals:     17.272 (MW) /    138.179 (MB)
	Size of irrep 4 of <Ab|Cd> integrals:     15.023 (MW) /    120.187 (MB)
	Size of irrep 5 of <Ab|Cd> integrals:     19.184 (MW) /    153.475 (MB)
	Size of irrep 6 of <Ab|Cd> integrals:     19.342 (MW) /    154.739 (MB)
	Size of irrep 7 of <Ab|Cd> integrals:     19.342 (MW) /    154.739 (MB)
	Total:                                   146.822 (MW) /   1174.578 (MB)

	Size of irrep 0 of <IA|BC> integrals:      0.524 (MW) /      4.195 (MB)
	Size of irrep 1 of <IA|BC> integrals:      0.334 (MW) /      2.670 (MB)
	Size of irrep 2 of <IA|BC> integrals:      0.334 (MW) /      2.670 (MB)
	Size of irrep 3 of <IA|BC> integrals:      0.334 (MW) /      2.670 (MB)
	Size of irrep 4 of <IA|BC> integrals:      0.272 (MW) /      2.179 (MB)
	Size of irrep 5 of <IA|BC> integrals:      0.447 (MW) /      3.576 (MB)
	Size of irrep 6 of <IA|BC> integrals:      0.447 (MW) /      3.576 (MB)
	Size of irrep 7 of <IA|BC> integrals:      0.447 (MW) /      3.576 (MB)
	Total:                                     3.139 (MW) /     25.111 (MB)

	Size of irrep 0 of <ia|bc> integrals:      0.299 (MW) /      2.390 (MB)
	Size of irrep 1 of <ia|bc> integrals:      0.131 (MW) /      1.047 (MB)
	Size of irrep 2 of <ia|bc> integrals:      0.193 (MW) /      1.543 (MB)
	Size of irrep 3 of <ia|bc> integrals:      0.193 (MW) /      1.543 (MB)
	Size of irrep 4 of <ia|bc> integrals:      0.121 (MW) /      0.971 (MB)
	Size of irrep 5 of <ia|bc> integrals:      0.278 (MW) /      2.228 (MB)
	Size of irrep 6 of <ia|bc> integrals:      0.205 (MW) /      1.640 (MB)
	Size of irrep 7 of <ia|bc> integrals:      0.205 (MW) /      1.640 (MB)
	Total:                                     1.625 (MW) /     13.001 (MB)

	Size of irrep 0 of <Ia|Bc> integrals:      0.539 (MW) /      4.315 (MB)
	Size of irrep 1 of <Ia|Bc> integrals:      0.346 (MW) /      2.769 (MB)
	Size of irrep 2 of <Ia|Bc> integrals:      0.341 (MW) /      2.726 (MB)
	Size of irrep 3 of <Ia|Bc> integrals:      0.341 (MW) /      2.726 (MB)
	Size of irrep 4 of <Ia|Bc> integrals:      0.275 (MW) /      2.202 (MB)
	Size of irrep 5 of <Ia|Bc> integrals:      0.451 (MW) /      3.609 (MB)
	Size of irrep 6 of <Ia|Bc> integrals:      0.457 (MW) /      3.659 (MB)
	Size of irrep 7 of <Ia|Bc> integrals:      0.457 (MW) /      3.659 (MB)
	Total:                                     3.208 (MW) /     25.665 (MB)

	Size of irrep 0 of <iA|bC> integrals:      0.295 (MW) /      2.364 (MB)
	Size of irrep 1 of <iA|bC> integrals:      0.129 (MW) /      1.034 (MB)
	Size of irrep 2 of <iA|bC> integrals:      0.187 (MW) /      1.496 (MB)
	Size of irrep 3 of <iA|bC> integrals:      0.187 (MW) /      1.496 (MB)
	Size of irrep 4 of <iA|bC> integrals:      0.120 (MW) /      0.961 (MB)
	Size of irrep 5 of <iA|bC> integrals:      0.276 (MW) /      2.208 (MB)
	Size of irrep 6 of <iA|bC> integrals:      0.198 (MW) /      1.583 (MB)
	Size of irrep 7 of <iA|bC> integrals:      0.198 (MW) /      1.583 (MB)
	Total:                                     1.591 (MW) /     12.726 (MB)

	Size of irrep 0 of tIjAb amplitudes:       0.009 (MW) /      0.075 (MB)
	Size of irrep 1 of tIjAb amplitudes:       0.000 (MW) /      0.000 (MB)
	Size of irrep 2 of tIjAb amplitudes:       0.004 (MW) /      0.033 (MB)
	Size of irrep 3 of tIjAb amplitudes:       0.004 (MW) /      0.033 (MB)
	Size of irrep 4 of tIjAb amplitudes:       0.000 (MW) /      0.000 (MB)
	Size of irrep 5 of tIjAb amplitudes:       0.009 (MW) /      0.070 (MB)
	Size of irrep 6 of tIjAb amplitudes:       0.004 (MW) /      0.035 (MB)
	Size of irrep 7 of tIjAb amplitudes:       0.004 (MW) /      0.035 (MB)
	Total:                                     0.035 (MW) /      0.282 (MB)

	Nuclear Rep. energy          =      0.00000000000000
	SCF energy                   =    -98.84114505079452
	One-electron energy          =    -36.52711527452266
	Two-electron (AA) energy     =      4.91499795585580
	Two-electron (BB) energy     =      0.72927017995462
	Two-electron (AB) energy     =      7.52157803150475
	Two-electron energy          =     13.16584616731517
	Reference energy             =    -98.84114505079472

*** tstop() called on n412-071.vsc4.prov at Mon Nov  2 10:47:12 2020
Module time:
	user time   =      17.35 seconds =       0.29 minutes
	system time =      12.39 seconds =       0.21 minutes
	total time  =         67 seconds =       1.12 minutes
Total time:
	user time   =     291.80 seconds =       4.86 minutes
	system time =      18.78 seconds =       0.31 minutes
	total time  =        141 seconds =       2.35 minutes

*** tstart() called on n412-071.vsc4.prov
*** at Mon Nov  2 10:47:12 2020

            **************************
            *                        *
            *        CCENERGY        *
            *                        *
            **************************

    Nuclear Rep. energy (wfn)     =    0.000000000000000
    SCF energy          (wfn)     =  -98.841145050794523
    Reference energy    (file100) =  -98.841145050794722

      * MP2 total energy                      =  -99.010187788932114
      * CCSD total energy                     =  -99.022476547429264
*** Psi4 exiting successfully. Buy a developer a beer!
