                               Psi4 1.2a1.dev939

  ==> Input File <==

--------------------------------------------------------------------------
# Any line starting with the # character is a comment line

memory 250000 mb

molecule molecule {
0 1
C          0.4159467511        0.0922139500        0.0000000000
O         -0.2086001535        1.1229963918        0.0000000000
O         -0.1249796048       -1.1409420749        0.0000000000
H         -1.0881867206       -1.0190307559        0.0000000000
H          1.5056910277        0.0154612889        0.0000000000
}

set {
  reference rhf

  basis aug-cc-pv(6+d)z
  scf_type OUT_OF_CORE
  freeze_core true
}

energy('ccsd')
--------------------------------------------------------------------------

    Molecular point group: cs

    Geometry (in Angstrom), charge = 0, multiplicity = 1:

       Center              X                  Y                   Z               Mass
    ------------   -----------------  -----------------  -----------------  -----------------
           C          0.414282763392     0.096385077051     0.000000000000    12.000000000000
           O         -0.210264141208     1.127167518851     0.000000000000    15.994914619560
           O         -0.126643592508    -1.136770947849     0.000000000000    15.994914619560
           H         -1.089850708308    -1.014859628849     0.000000000000     1.007825032070
           H          1.504027039992     0.019632415951     0.000000000000     1.007825032070

  Charge       = 0
  Multiplicity = 1
  Basis Set: AUG-CC-PV(6+D)Z
    Blend: AUG-CC-PV(6+D)Z

    Orbital Energies (a.u.)
    -----------------------

    Doubly Occupied:

       1Ap   -20.626728     2Ap   -20.565461     3Ap   -11.397273
       4Ap    -1.476049     5Ap    -1.376274     6Ap    -0.897510
       7Ap    -0.725294     8Ap    -0.714315     1App   -0.638211
       9Ap    -0.606901     2App   -0.497936    10Ap    -0.475734

  @RHF Final Energy:  -188.85918654235769

   => Energetics <=

    Nuclear Repulsion Energy =             70.0617426504103378
    One-Electron Energy =                -397.8464812971318452
    Two-Electron Energy =                 138.9255521043638169
    Total Energy =                       -188.8591865423576905
      * MP2 total energy                      = -189.567746764908350
      * CCSD total energy                     = -189.557896477216389
*** Psi4 exiting successfully. Buy a developer a beer!
