                               Psi4 1.2a1.dev939

  ==> Input File <==

--------------------------------------------------------------------------
# Any line starting with the # character is a comment line

memory 32000 mb

molecule molecule {
0 1
C          0.4159467511        0.0922139500        0.0000000000
O         -0.2086001535        1.1229963918        0.0000000000
O         -0.1249796048       -1.1409420749        0.0000000000
H         -1.0881867206       -1.0190307559        0.0000000000
H          1.5056910277        0.0154612889        0.0000000000
}

set {
  reference rhf
  basis aug-cc-pv(T+d)z
  scf_type OUT_OF_CORE
  freeze_core true
}

energy('ccsd')
--------------------------------------------------------------------------

    Molecular point group: cs

    Geometry (in Angstrom), charge = 0, multiplicity = 1:

       Center              X                  Y                   Z               Mass
    ------------   -----------------  -----------------  -----------------  -----------------
           C          0.414282763392     0.096385077051     0.000000000000    12.000000000000
           O         -0.210264141208     1.127167518851     0.000000000000    15.994914619560
           O         -0.126643592508    -1.136770947849     0.000000000000    15.994914619560
           H         -1.089850708308    -1.014859628849     0.000000000000     1.007825032070
           H          1.504027039992     0.019632415951     0.000000000000     1.007825032070

  Charge       = 0
  Multiplicity = 1
  Basis Set: AUG-CC-PV(T+D)Z
    Blend: AUG-CC-PV(T+D)Z

    Orbital Energies (a.u.)
    -----------------------

    Doubly Occupied:

       1Ap   -20.630353     2Ap   -20.569045     3Ap   -11.398870
       4Ap    -1.477199     5Ap    -1.377483     6Ap    -0.897824
       7Ap    -0.725346     8Ap    -0.714446     1App   -0.638132
       9Ap    -0.606865     2App   -0.497845    10Ap    -0.475615

  @RHF Final Energy:  -188.84353496328885

   => Energetics <=

    Nuclear Repulsion Energy =             70.0617426504103378
    One-Electron Energy =                -397.7925121532617254
    Two-Electron Energy =                 138.8872345395625416
    Total Energy =                       -188.8435349632888460
      * MP2 total energy                      = -189.486761287068134
      * CCSD total energy                     = -189.489769865635026
*** Psi4 exiting successfully. Buy a developer a beer!
