                               Psi4 1.4a3.dev88

  ==> Input File <==

--------------------------------------------------------------------------
# Any line starting with the # character is a comment line
memory 250000 mb
molecule molecule{
0 1
C          0.0000000000        0.0000000000       -0.6203930707
O          0.0000000000        0.0000000000        0.5925090134
H          0.9360096420        0.0000000000       -1.1985794735
H         -0.9360096420        0.0000000000       -1.1985794735
}

set {
  reference rhf
  basis aug-cc-pV(d+d)Z
  scf_type OUT_OF_CORE
  freeze_core true
}

energy('ccsd(t)')
--------------------------------------------------------------------------

    Molecular point group: c2v

    Geometry (in Angstrom), charge = 0, multiplicity = 1:

       Center              X                  Y                   Z               Mass
    ------------   -----------------  -----------------  -----------------  -----------------
         C            0.000000000000     0.000000000000    -0.607614152182    12.000000000000
         O            0.000000000000     0.000000000000     0.605287931918    15.994914619570
         H            0.936009642000     0.000000000000    -1.185800554982     1.007825032230
         H           -0.936009642000    -0.000000000000    -1.185800554982     1.007825032230

  Charge       = 0
  Multiplicity = 1
  Basis Set: AUG-CC-PV(D+D)Z
    Blend: AUG-CC-PV(D+D)Z

    Orbital Energies [Eh]
    ---------------------

    Doubly Occupied:

       1A1   -20.589186     2A1   -11.353152     3A1    -1.407289
       4A1    -0.873786     1B1    -0.694377     5A1    -0.651959
       1B2    -0.534649     2B1    -0.443610

  @RHF Final Energy:  -113.88464605941098

   => Energetics <=

    Nuclear Repulsion Energy =             31.1860569834276049
    One-Electron Energy =                -217.0453919535226248
    Two-Electron Energy =                  71.9746889106840229
    Total Energy =                       -113.8846460594109828

  Dipole Moment: [D]
     X:     0.0000      Y:     0.0000      Z:    -2.9006     Total:     2.9006

      * MP2 total energy                      = -114.218528892942885
      * CCSD total energy                     = -114.232682905225076
      * CCSD(T) total energy                  = -114.244774097265292
*** Psi4 exiting successfully. Buy a developer a beer!
