                               Psi4 1.4a3.dev88

  ==> Input File <==

--------------------------------------------------------------------------
# Any line starting with the # character is a comment line
memory 250000 mb
molecule molecule{
0 1
C          0.0000000000        0.0000000000       -0.6203930707
O          0.0000000000        0.0000000000        0.5925090134
H          0.9360096420        0.0000000000       -1.1985794735
H         -0.9360096420        0.0000000000       -1.1985794735
}

set {
  reference rhf
  basis aug-cc-pV(6+d)Z
  scf_type OUT_OF_CORE
  freeze_core true
}

energy('ccsd(t)')
--------------------------------------------------------------------------

    Molecular point group: c2v

    Geometry (in Angstrom), charge = 0, multiplicity = 1:

       Center              X                  Y                   Z               Mass
    ------------   -----------------  -----------------  -----------------  -----------------
         C            0.000000000000     0.000000000000    -0.607614152182    12.000000000000
         O            0.000000000000     0.000000000000     0.605287931918    15.994914619570
         H            0.936009642000     0.000000000000    -1.185800554982     1.007825032230
         H           -0.936009642000    -0.000000000000    -1.185800554982     1.007825032230

  Charge       = 0
  Multiplicity = 1
  Basis Set: AUG-CC-PV(6+D)Z
    Blend: AUG-CC-PV(6+D)Z

    Orbital Energies [Eh]
    ---------------------

    Doubly Occupied:

       1A1   -20.575738     2A1   -11.342082     3A1    -1.401100
       4A1    -0.872687     1B1    -0.694523     5A1    -0.650660
       1B2    -0.534320     2B1    -0.445091

  @RHF Final Energy:  -113.92243983355897

   => Energetics <=

    Nuclear Repulsion Energy =             31.1860569834276049
    One-Electron Energy =                -217.1845906015977903
    Two-Electron Energy =                  72.0760937846112313
    Total Energy =                       -113.9224398335589683

  Dipole Moment: [D]
     X:     0.0000      Y:     0.0000      Z:    -2.8906     Total:     2.8906

      * MP2 total energy                      = -114.364946147075003
      * CCSD total energy                     = -114.365359210441412
      * CCSD(T) total energy                  = -114.384798957748217
*** Psi4 exiting successfully. Buy a developer a beer!
