                               Psi4 1.4a3.dev88

  ==> Input File <==

--------------------------------------------------------------------------
# Any line starting with the # character is a comment line
memory 250000 mb
molecule molecule{
0 1
C          0.0000000000        0.0000000000       -0.6203930707
O          0.0000000000        0.0000000000        0.5925090134
H          0.9360096420        0.0000000000       -1.1985794735
H         -0.9360096420        0.0000000000       -1.1985794735
}

set {
  reference rhf
  basis aug-cc-pV(5+d)Z
  scf_type OUT_OF_CORE
  freeze_core true
}

energy('ccsd(t)')
--------------------------------------------------------------------------

    Molecular point group: c2v

    Geometry (in Angstrom), charge = 0, multiplicity = 1:

       Center              X                  Y                   Z               Mass
    ------------   -----------------  -----------------  -----------------  -----------------
         C            0.000000000000     0.000000000000    -0.607614152182    12.000000000000
         O            0.000000000000     0.000000000000     0.605287931918    15.994914619570
         H            0.936009642000     0.000000000000    -1.185800554982     1.007825032230
         H           -0.936009642000    -0.000000000000    -1.185800554982     1.007825032230

  Charge       = 0
  Multiplicity = 1
  Basis Set: AUG-CC-PV(5+D)Z
    Blend: AUG-CC-PV(5+D)Z

    Orbital Energies [Eh]
    ---------------------

    Doubly Occupied:

       1A1   -20.575788     2A1   -11.342104     3A1    -1.401121
       4A1    -0.872690     1B1    -0.694521     5A1    -0.650660
       1B2    -0.534322     2B1    -0.445084

  @RHF Final Energy:  -113.92223918779612

   => Energetics <=

    Nuclear Repulsion Energy =             31.1860569834276049
    One-Electron Energy =                -217.1840142759336914
    Two-Electron Energy =                  72.0757181047099778
    Total Energy =                       -113.9222391877961229

  Dipole Moment: [D]
     X:     0.0000      Y:     0.0000      Z:    -2.8906     Total:     2.8906

      * MP2 total energy                      = -114.360286008256807
      * CCSD total energy                     = -114.362298883640563
      * CCSD(T) total energy                  = -114.381574471856709
*** Psi4 exiting successfully. Buy a developer a beer!
