                               Psi4 1.4a3.dev88

  ==> Input File <==

--------------------------------------------------------------------------
# Any line starting with the # character is a comment line
memory 250000 mb
molecule molecule{
0 1
C          0.0000000000        0.0000000000       -0.6203930707
O          0.0000000000        0.0000000000        0.5925090134
H          0.9360096420        0.0000000000       -1.1985794735
H         -0.9360096420        0.0000000000       -1.1985794735
}

set {
  reference rhf
  basis aug-cc-pV(t+d)Z
  scf_type OUT_OF_CORE
  freeze_core true
}

energy('ccsd(t)')
--------------------------------------------------------------------------

    Molecular point group: c2v

    Geometry (in Angstrom), charge = 0, multiplicity = 1:

       Center              X                  Y                   Z               Mass
    ------------   -----------------  -----------------  -----------------  -----------------
         C            0.000000000000     0.000000000000    -0.607614152182    12.000000000000
         O            0.000000000000     0.000000000000     0.605287931918    15.994914619570
         H            0.936009642000     0.000000000000    -1.185800554982     1.007825032230
         H           -0.936009642000    -0.000000000000    -1.185800554982     1.007825032230

  Charge       = 0
  Multiplicity = 1
  Basis Set: AUG-CC-PV(T+D)Z
    Blend: AUG-CC-PV(T+D)Z

    Orbital Energies [Eh]
    ---------------------

    Doubly Occupied:

       1A1   -20.579273     2A1   -11.343523     3A1    -1.402276
       4A1    -0.872928     1B1    -0.694442     5A1    -0.650646
       1B2    -0.534294     2B1    -0.444856

  @RHF Final Energy:  -113.91314350660751

   => Energetics <=

    Nuclear Repulsion Energy =             31.1860569834276049
    One-Electron Energy =                -217.1539252144079342
    Two-Electron Energy =                  72.0547247243728322
    Total Energy =                       -113.9131435066075113

  Dipole Moment: [D]
     X:     0.0000      Y:     0.0000      Z:    -2.8945     Total:     2.8945

      * MP2 total energy                      = -114.316410206275933
      * CCSD total energy                     = -114.325357338304897
      * CCSD(T) total energy                  = -114.342922445263440
*** Psi4 exiting successfully. Buy a developer a beer!
