                               Psi4 1.4a3.dev88

  ==> Input File <==

--------------------------------------------------------------------------
# Any line starting with the # character is a comment line
memory 250000 mb
molecule molecule{
1 3
N          0.0000000000        0.0000000000        0.0000000000
}

set {
  reference uhf
  basis aug-cc-pV(t+d)Z
  scf_type OUT_OF_CORE
  freeze_core true
}

energy('ccsd(t)')
--------------------------------------------------------------------------

    Molecular point group: d2h
    Geometry (in Angstrom), charge = 1, multiplicity = 3:

       Center              X                  Y                   Z               Mass
    ------------   -----------------  -----------------  -----------------  -----------------
         N            0.000000000000     0.000000000000     0.000000000000    14.003074004430

  Charge       = 1
  Multiplicity = 3
  Basis Set: AUG-CC-PV(T+D)Z
    Blend: AUG-CC-PV(T+D)Z

    Orbital Energies [Eh]
    ---------------------

    Alpha Occupied:

       1Ag   -16.320920     2Ag    -1.623271     1B1u   -1.115880
       1B3u   -1.115880

    Alpha Virtual:

       1B2u   -0.460674     3Ag    -0.125464     2B3u   -0.079399
       2B1u   -0.079399     2B2u   -0.069986     4Ag     0.157307
       1B1g    0.157377     1B3g    0.157377     1B2g    0.158540
       5Ag     0.158540     3B3u    0.364199     3B1u    0.364199
       3B2u    0.409951     6Ag     0.573766     2B2g    1.066962
       7Ag     1.066962     2B3g    1.084047     2B1g    1.084047
       8Ag     1.091101     4B2u    1.098014     4B1u    1.099857
       4B3u    1.099857     1Au     1.105434     5B2u    1.105434
       5B1u    1.114793     5B3u    1.114793     6B3u    2.733737
       6B1u    2.733737     6B2u    2.788501     7B2u    4.306632
       7B1u    4.309536     7B3u    4.309536     2Au     4.318233
       8B2u    4.318233     8B3u    4.332650     8B1u    4.332650
       9Ag     4.424849     3B2g    4.424849     3B1g    4.436680
       3B3g    4.436680    10Ag     4.441135    11Ag     5.750566

    Beta Occupied:

       1Ag   -16.246531     2Ag    -1.306486

    Beta Virtual:

       1B2u   -0.404712     1B1u   -0.327913     1B3u   -0.327913
       3Ag    -0.113628     2B2u   -0.064699     2B3u   -0.052422
       2B1u   -0.052422     4Ag     0.165493     1B1g    0.169478
       1B3g    0.169478     5Ag     0.182005     1B2g    0.182005
       3B2u    0.431389     3B3u    0.473470     3B1u    0.473470
       6Ag     0.635643     4B2u    1.108937     4B1u    1.112408
       4B3u    1.112408     5B2u    1.122907     1Au     1.122907
       7Ag     1.139764     5B1u    1.140799     5B3u    1.140799
       2B3g    1.152339     2B1g    1.152339     8Ag     1.193612
       2B2g    1.193612     6B2u    2.823133     6B3u    2.894626
       6B1u    2.894626     7B2u    4.352608     7B1u    4.361401
       7B3u    4.361401     2Au     4.388027     8B2u    4.388027
       8B1u    4.433403     8B3u    4.433403     9Ag     4.519581
       3B1g    4.541170     3B3g    4.541170    10Ag     4.608376
       3B2g    4.608376    11Ag     5.831026

    Final Occupation by Irrep:
             Ag   B1g   B2g   B3g    Au   B1u   B2u   B3u
    DOCC [     2,    0,    0,    0,    0,    0,    0,    0 ]
    SOCC [     0,    0,    0,    0,    0,    1,    0,    1 ]

  @UHF Final Energy:   -53.89044452036840

   => Energetics <=

    Nuclear Repulsion Energy =              0.0000000000000000
    One-Electron Energy =                 -70.0519212987836397
    Two-Electron Energy =                  16.1614767784152349
    Total Energy =                        -53.8904445203684048

  UHF NO Occupations:
  HONO-2 :    2 Ag 1.9965287
  HONO-1 :    1B1u 1.0000000
  HONO-0 :    1B3u 1.0000000
  LUNO+0 :    3 Ag 0.0034713
  LUNO+1 :    4 Ag 0.0000034
  LUNO+2 :    5 Ag 0.0000000
  LUNO+3 :    2B3u 0.0000000

Computation Completed

Properties will be evaluated at   0.000000,   0.000000,   0.000000 [a0]

Properties computed using the SCF density matrix

  Nuclear Dipole Moment: [e a0]
     X:     0.0000      Y:     0.0000      Z:     0.0000

  Electronic Dipole Moment: [e a0]
     X:     0.0000      Y:     0.0000      Z:     0.0000

  Dipole Moment: [e a0]
     X:     0.0000      Y:     0.0000      Z:     0.0000     Total:     0.0000

  Dipole Moment: [D]
     X:     0.0000      Y:     0.0000      Z:     0.0000     Total:     0.0000

*** tstop() called on n412-040.vsc4.prov at Tue Jan 26 18:02:25 2021
Module time:
	user time   =       6.95 seconds =       0.12 minutes
	system time =       0.23 seconds =       0.00 minutes
	total time  =          1 seconds =       0.02 minutes
Total time:
	user time   =       6.95 seconds =       0.12 minutes
	system time =       0.23 seconds =       0.00 minutes
	total time  =          1 seconds =       0.02 minutes

*** tstart() called on n412-040.vsc4.prov
*** at Tue Jan 26 18:02:25 2021

	Wfn Parameters:
	--------------------
	Wavefunction         = CCSD_T
	Number of irreps     = 8
	Number of MOs        = 46
	Number of active MOs = 45
	AO-Basis             = NONE
	Semicanonical        = false
	Reference            = UHF
	Print Level          = 1

	IRREP	# MOs	# FZDC	# DOCC	# SOCC	# VIRT	# FZVR
	-----	-----	------	------	------	------	------
	 Ag	   11	    1	    1	    0	    9	    0
	 B1g	   3	    0	    0	    0	    3	    0
	 B2g	   3	    0	    0	    0	    3	    0
	 B3g	   3	    0	    0	    0	    3	    0
	 Au	   2	    0	    0	    0	    2	    0
	 B1u	   8	    0	    0	    1	    7	    0
	 B2u	   8	    0	    0	    0	    8	    0
	 B3u	   8	    0	    0	    1	    7	    0
	Transforming integrals...
	IWL integrals will be deleted.
	(OO|OO)...
	Presorting SO-basis two-electron integrals.
	Sorting File: SO Ints (nn|nn) nbuckets = 1
	Constructing frozen core operators
	Starting AA/AB first half-transformation.
	Sorting AA/AB half-transformed integrals.
	Starting BB first half-transformation.
	Sorting BB half-transformed integrals.
	First half integral transformation complete.
	Starting AA second half-transformation.
	Starting AB second half-transformation.
	Starting BB second half-transformation.
	Two-electron integral transformation complete.
	(OO|OV)...
	Starting AA second half-transformation.
	Starting AB second half-transformation.
	Starting BB second half-transformation.
	Two-electron integral transformation complete.
	(OO|VV)...
	Starting AA second half-transformation.
	Starting AB second half-transformation.
	Starting BB second half-transformation.
	Two-electron integral transformation complete.
	(OV|OO)...
	Starting AA/AB first half-transformation.
	Sorting AA/AB half-transformed integrals.
	Starting BB first half-transformation.
	Sorting BB half-transformed integrals.
	First half integral transformation complete.
	Starting AA second half-transformation.
	Starting AB second half-transformation.
	Starting BB second half-transformation.
	Two-electron integral transformation complete.
	(OV|OV)...
	Starting AA second half-transformation.
	Starting AB second half-transformation.
	Starting BB second half-transformation.
	Two-electron integral transformation complete.
	(OV|VV)...
	Starting AA second half-transformation.
	Starting AB second half-transformation.
	Starting BB second half-transformation.
	Two-electron integral transformation complete.
	(VV|OO)...
	Starting AA/AB first half-transformation.
	Sorting AA/AB half-transformed integrals.
	Starting BB first half-transformation.
	Sorting BB half-transformed integrals.
	First half integral transformation complete.
	Starting AA second half-transformation.
	Starting AB second half-transformation.
	Starting BB second half-transformation.
	Two-electron integral transformation complete.
	(VV|OV)...
	Starting AA second half-transformation.
	Starting AB second half-transformation.
	Starting BB second half-transformation.
	Two-electron integral transformation complete.
	(VV|VV)...
	Starting AA second half-transformation.
	Starting AB second half-transformation.
	Starting BB second half-transformation.
	Two-electron integral transformation complete.
	Frozen core energy     =    -44.73297242404886

	Size of irrep 0 of <AB|CD> integrals:      0.013 (MW) /      0.108 (MB)
	Size of irrep 1 of <AB|CD> integrals:      0.011 (MW) /      0.090 (MB)
	Size of irrep 2 of <AB|CD> integrals:      0.010 (MW) /      0.082 (MB)
	Size of irrep 3 of <AB|CD> integrals:      0.011 (MW) /      0.090 (MB)
	Size of irrep 4 of <AB|CD> integrals:      0.007 (MW) /      0.056 (MB)
	Size of irrep 5 of <AB|CD> integrals:      0.013 (MW) /      0.104 (MB)
	Size of irrep 6 of <AB|CD> integrals:      0.014 (MW) /      0.115 (MB)
	Size of irrep 7 of <AB|CD> integrals:      0.013 (MW) /      0.104 (MB)
	Total:                                     0.094 (MW) /      0.749 (MB)

	Size of irrep 0 of <ab|cd> integrals:      0.017 (MW) /      0.135 (MB)
	Size of irrep 1 of <ab|cd> integrals:      0.013 (MW) /      0.108 (MB)
	Size of irrep 2 of <ab|cd> integrals:      0.013 (MW) /      0.108 (MB)
	Size of irrep 3 of <ab|cd> integrals:      0.013 (MW) /      0.108 (MB)
	Size of irrep 4 of <ab|cd> integrals:      0.008 (MW) /      0.065 (MB)
	Size of irrep 5 of <ab|cd> integrals:      0.016 (MW) /      0.127 (MB)
	Size of irrep 6 of <ab|cd> integrals:      0.016 (MW) /      0.127 (MB)
	Size of irrep 7 of <ab|cd> integrals:      0.016 (MW) /      0.127 (MB)
	Total:                                     0.113 (MW) /      0.904 (MB)

	Size of irrep 0 of <Ab|Cd> integrals:      0.083 (MW) /      0.664 (MB)
	Size of irrep 1 of <Ab|Cd> integrals:      0.049 (MW) /      0.394 (MB)
	Size of irrep 2 of <Ab|Cd> integrals:      0.047 (MW) /      0.373 (MB)
	Size of irrep 3 of <Ab|Cd> integrals:      0.049 (MW) /      0.394 (MB)
	Size of irrep 4 of <Ab|Cd> integrals:      0.030 (MW) /      0.242 (MB)
	Size of irrep 5 of <Ab|Cd> integrals:      0.058 (MW) /      0.461 (MB)
	Size of irrep 6 of <Ab|Cd> integrals:      0.061 (MW) /      0.484 (MB)
	Size of irrep 7 of <Ab|Cd> integrals:      0.058 (MW) /      0.461 (MB)
	Total:                                     0.434 (MW) /      3.473 (MB)

	Size of irrep 0 of <IA|BC> integrals:      0.006 (MW) /      0.050 (MB)
	Size of irrep 1 of <IA|BC> integrals:      0.003 (MW) /      0.022 (MB)
	Size of irrep 2 of <IA|BC> integrals:      0.003 (MW) /      0.027 (MB)
	Size of irrep 3 of <IA|BC> integrals:      0.003 (MW) /      0.022 (MB)
	Size of irrep 4 of <IA|BC> integrals:      0.001 (MW) /      0.011 (MB)
	Size of irrep 5 of <IA|BC> integrals:      0.004 (MW) /      0.035 (MB)
	Size of irrep 6 of <IA|BC> integrals:      0.003 (MW) /      0.027 (MB)
	Size of irrep 7 of <IA|BC> integrals:      0.004 (MW) /      0.035 (MB)
	Total:                                     0.029 (MW) /      0.229 (MB)

	Size of irrep 0 of <ia|bc> integrals:      0.003 (MW) /      0.022 (MB)
	Size of irrep 1 of <ia|bc> integrals:      0.001 (MW) /      0.006 (MB)
	Size of irrep 2 of <ia|bc> integrals:      0.001 (MW) /      0.006 (MB)
	Size of irrep 3 of <ia|bc> integrals:      0.001 (MW) /      0.006 (MB)
	Size of irrep 4 of <ia|bc> integrals:      0.000 (MW) /      0.003 (MB)
	Size of irrep 5 of <ia|bc> integrals:      0.002 (MW) /      0.016 (MB)
	Size of irrep 6 of <ia|bc> integrals:      0.002 (MW) /      0.016 (MB)
	Size of irrep 7 of <ia|bc> integrals:      0.002 (MW) /      0.016 (MB)
	Total:                                     0.011 (MW) /      0.090 (MB)

	Size of irrep 0 of <Ia|Bc> integrals:      0.007 (MW) /      0.058 (MB)
	Size of irrep 1 of <Ia|Bc> integrals:      0.003 (MW) /      0.023 (MB)
	Size of irrep 2 of <Ia|Bc> integrals:      0.004 (MW) /      0.033 (MB)
	Size of irrep 3 of <Ia|Bc> integrals:      0.003 (MW) /      0.023 (MB)
	Size of irrep 4 of <Ia|Bc> integrals:      0.001 (MW) /      0.011 (MB)
	Size of irrep 5 of <Ia|Bc> integrals:      0.005 (MW) /      0.038 (MB)
	Size of irrep 6 of <Ia|Bc> integrals:      0.003 (MW) /      0.028 (MB)
	Size of irrep 7 of <Ia|Bc> integrals:      0.005 (MW) /      0.038 (MB)
	Total:                                     0.032 (MW) /      0.252 (MB)

	Size of irrep 0 of <iA|bC> integrals:      0.003 (MW) /      0.021 (MB)
	Size of irrep 1 of <iA|bC> integrals:      0.001 (MW) /      0.005 (MB)
	Size of irrep 2 of <iA|bC> integrals:      0.001 (MW) /      0.005 (MB)
	Size of irrep 3 of <iA|bC> integrals:      0.001 (MW) /      0.005 (MB)
	Size of irrep 4 of <iA|bC> integrals:      0.000 (MW) /      0.003 (MB)
	Size of irrep 5 of <iA|bC> integrals:      0.002 (MW) /      0.013 (MB)
	Size of irrep 6 of <iA|bC> integrals:      0.002 (MW) /      0.016 (MB)
	Size of irrep 7 of <iA|bC> integrals:      0.002 (MW) /      0.013 (MB)
	Total:                                     0.010 (MW) /      0.082 (MB)

	Size of irrep 0 of tIjAb amplitudes:       0.000 (MW) /      0.002 (MB)
	Size of irrep 1 of tIjAb amplitudes:       0.000 (MW) /      0.000 (MB)
	Size of irrep 2 of tIjAb amplitudes:       0.000 (MW) /      0.000 (MB)
	Size of irrep 3 of tIjAb amplitudes:       0.000 (MW) /      0.000 (MB)
	Size of irrep 4 of tIjAb amplitudes:       0.000 (MW) /      0.000 (MB)
	Size of irrep 5 of tIjAb amplitudes:       0.000 (MW) /      0.002 (MB)
	Size of irrep 6 of tIjAb amplitudes:       0.000 (MW) /      0.000 (MB)
	Size of irrep 7 of tIjAb amplitudes:       0.000 (MW) /      0.002 (MB)
	Total:                                     0.001 (MW) /      0.006 (MB)

	Nuclear Rep. energy          =      0.00000000000000
	SCF energy                   =    -53.89044452036840
	One-electron energy          =    -13.15342770579683
	Two-electron (AA) energy     =      1.83784969506360
	Two-electron (BB) energy     =      0.00000000000000
	Two-electron (AB) energy     =      2.15810591441369
	Two-electron energy          =      3.99595560947729
	Reference energy             =    -53.89044452036840

*** tstop() called on n412-040.vsc4.prov at Tue Jan 26 18:02:26 2021
Module time:
	user time   =       0.13 seconds =       0.00 minutes
	system time =       0.13 seconds =       0.00 minutes
	total time  =          1 seconds =       0.02 minutes
Total time:
	user time   =       7.08 seconds =       0.12 minutes
	system time =       0.36 seconds =       0.01 minutes
	total time  =          2 seconds =       0.03 minutes
            **************************
            *                        *
            *        CCENERGY        *
            *                        *
            **************************

    Nuclear Rep. energy (wfn)     =    0.000000000000000
    SCF energy          (wfn)     =  -53.890444520368405
    Reference energy    (file100) =  -53.890444520368405

    Input parameters:
    -----------------
    Wave function   =     CCSD_T
    Reference wfn   =     UHF
    Brueckner       =     No
    Memory (Mbytes) =     250000.0
    Maxiter         =     50
    R_Convergence   =     1.0e-07
    E_Convergence   =     1.0e-06
    Restart         =     Yes
    DIIS            =     Yes
    AO Basis        =     NONE
    ABCD            =     NEW
    Cache Level     =     2
    Cache Type      =     LRU
    Print Level     =     1
    Num. of threads =     48
    # Amps to Print =     10
    Print MP2 Amps? =     No
    Analyze T2 Amps =     No
    Print Pair Ener =     No
    Local CC        =     No
    SCS-MP2         =     False
    SCSN-MP2        =     False
    SCS-CCSD        =     False

MP2 correlation energy -0.0720201112288128
                Solving CC Amplitude Equations
                ------------------------------
  Iter             Energy              RMS        T1Diag      D1Diag    New D1Diag    D2Diag
  ----     ---------------------    ---------   ----------  ----------  ----------   --------
     0        -0.072020111228813    0.000e+00    0.000000    0.000000    0.000000    0.000000
     1        -0.085776571866184    4.024e-02    0.004490    0.000000    0.000000    0.000000
     2        -0.092538007521617    1.801e-02    0.008355    0.000000    0.000000    0.000000
     3        -0.092900392789454    3.675e-03    0.009110    0.000000    0.000000    0.000000
     4        -0.092932769291961    6.035e-04    0.009083    0.000000    0.000000    0.000000
     5        -0.092923212607052    9.036e-05    0.009055    0.000000    0.000000    0.000000
     6        -0.092927061284491    1.726e-05    0.009054    0.000000    0.000000    0.000000
     7        -0.092926363975472    4.045e-06    0.009054    0.000000    0.000000    0.000000
     8        -0.092926360067904    1.099e-06    0.009054    0.000000    0.000000    0.000000
     9        -0.092926394471097    2.503e-07    0.009054    0.000000    0.000000    0.000000
    10        -0.092926393495628    5.019e-08    0.009054    0.000000    0.000000    0.000000

    Iterations converged.

    Largest TIA Amplitudes:
              0   5         0.0096631041
              0   1        -0.0068505673
              0   7         0.0034793079
              1  21        -0.0024587770
              2  36        -0.0024587770
              1  20        -0.0024078740
              2  35        -0.0024078740
              0   0         0.0018461253
              1  22         0.0010182477
              2  37         0.0010182477

    Largest Tia Amplitudes:
              0   3         0.0089227011
              0   0        -0.0075076063
              0   4         0.0018587879
              0   8        -0.0017470839
              0   6        -0.0010565975
              0   1        -0.0005625230

    Largest TIJAB Amplitudes:
      2   1  36  21        -0.0179355245
      2   1  13   4        -0.0168256555
      1   0  27  16         0.0120896190
      2   0  27  10         0.0120896190
      2   1  39  24        -0.0116814274
      1   0  21   3        -0.0116386411
      2   0  36   3        -0.0116386411
      2   1  36  24        -0.0113307836
      2   1  39  21        -0.0113307836
      2   1  12   4        -0.0091554679

    Largest TIjAb Amplitudes:
      0   0  27  28        -0.1183217212
      1   0  16  28        -0.0322303668
      2   0  10  28        -0.0322303668
      0   0  27  30        -0.0312714146
      1   0   4  20        -0.0303075205
      1   0  13  36        -0.0303075205
      2   0   4  36         0.0303075205
      2   0  13  20        -0.0303075205
      0   0  29  28        -0.0278340329
      0   0  27  29        -0.0268948944

    SCF energy       (wfn)                    =  -53.890444520368405
    Reference energy (file100)                =  -53.890444520368405

    Opposite-spin MP2 correlation energy      =   -0.059049043103222
    Same-spin MP2 correlation energy          =   -0.012971068125590
    Singles MP2 correlation energy            =   -0.000000000000000
    MP2 correlation energy                    =   -0.072020111228813
      * MP2 total energy                      =  -53.962464631597214

      * CCSD total energy                     =  -53.983370913864036
      * CCSD(T) total energy                     =  -53.985003551623592
*** Psi4 exiting successfully. Buy a developer a beer!
