                               Psi4 1.2a1.dev939

  ==> Input File <==

--------------------------------------------------------------------------
# Any line starting with the # character is a comment line

memory 32000 mb

molecule molecule {
-1 1
O          0.0000000000        0.0000000000        0.0573315255
H          0.0000000000        0.0000000000       -0.9100442572
}

set {
  reference rhf

  basis aug-cc-pv(5+d)z
  scf_type OUT_OF_CORE
  freeze_core true
}

energy('ccsd')
--------------------------------------------------------------------------

    Molecular point group: c2v

    Geometry (in Angstrom), charge = -1, multiplicity = 1:

       Center              X                  Y                   Z               Mass
    ------------   -----------------  -----------------  -----------------  -----------------
           O          0.000000000000     0.000000000000     0.057340496249    15.994914619560
           H          0.000000000000     0.000000000000    -0.910035286451     1.007825032070

  Charge       = -1
  Multiplicity = 1
  Basis Set: AUG-CC-PV(5+D)Z
    Blend: AUG-CC-PV(5+D)Z

    Orbital Energies (a.u.)
    -----------------------

    Doubly Occupied:

       1A1   -20.185001     2A1    -0.901603     3A1    -0.251401
       1B2    -0.109441     1B1    -0.109441

  @RHF Final Energy:   -75.41800031840155

   => Energetics <=

    Nuclear Repulsion Energy =              4.3761873559665654
    One-Electron Energy =                -116.4746007291358723
    Two-Electron Energy =                  36.6804130547677474
    PCM Polarization Energy =               0.0000000000000000
    Total Energy =                        -75.4180003184015675
      * MP2 total energy                      =  -75.733504917338820
      * CCSD total energy                     =  -75.723368869300003
*** Psi4 exiting successfully. Buy a developer a beer!
