                               Psi4 1.2a1.dev939

  ==> Input File <==

--------------------------------------------------------------------------
# Any line starting with the # character is a comment line

memory 32000 mb

molecule molecule {
-1 1
O          0.0000000000        0.0000000000        0.0573315255
H          0.0000000000        0.0000000000       -0.9100442572
}

set {
  reference rhf
  basis aug-cc-pv(T+d)z
  scf_type OUT_OF_CORE
  freeze_core true
}

energy('ccsd')
--------------------------------------------------------------------------

    Molecular point group: c2v

    Geometry (in Angstrom), charge = -1, multiplicity = 1:

       Center              X                  Y                   Z               Mass
    ------------   -----------------  -----------------  -----------------  -----------------
           O          0.000000000000     0.000000000000     0.057340496249    15.994914619560
           H          0.000000000000     0.000000000000    -0.910035286451     1.007825032070

  Charge       = -1
  Multiplicity = 1
  Basis Set: AUG-CC-PV(T+D)Z
    Blend: AUG-CC-PV(T+D)Z

    Orbital Energies (a.u.)
    -----------------------

    Doubly Occupied:

       1A1   -20.187473     2A1    -0.901908     3A1    -0.250792
       1B1    -0.108955     1B2    -0.108955

  @RHF Final Energy:   -75.41203194375908

   => Energetics <=

    Nuclear Repulsion Energy =              4.3761873559665654
    One-Electron Energy =                -116.4602713434579897
    Two-Electron Energy =                  36.6720520437323643
    PCM Polarization Energy =               0.0000000000000000
    Total Energy =                        -75.4120319437590609
      * MP2 total energy                      =  -75.702288105089480
      * CCSD total energy                     =  -75.697021403227026
*** Psi4 exiting successfully. Buy a developer a beer!
