                               Psi4 1.4a3.dev88

  ==> Input File <==

--------------------------------------------------------------------------
# Any line starting with the # character is a comment line
memory 250000 mb
molecule molecule{
1 3
O          0.0000000000        0.0000000000        0.0606658924
H          0.0000000000        0.0000000000       -0.9629718824
}

set {
  reference uhf
  basis aug-cc-pV(t+d)Z
  scf_type OUT_OF_CORE
  freeze_core true
}

energy('ccsd(t)')
--------------------------------------------------------------------------

    Molecular point group: c2v

    Geometry (in Angstrom), charge = 1, multiplicity = 3:

       Center              X                  Y                   Z               Mass
    ------------   -----------------  -----------------  -----------------  -----------------
         O            0.000000000000     0.000000000000     0.060675384938    15.994914619570
         H            0.000000000000     0.000000000000    -0.962962389862     1.007825032230

  Charge       = 1
  Multiplicity = 3
  Basis Set: AUG-CC-PV(T+D)Z
    Blend: AUG-CC-PV(T+D)Z

    Orbital Energies [Eh]
    ---------------------

    Alpha Occupied:

       1A1   -21.255221     2A1    -1.968936     1B1    -1.215200
       1B2    -1.215200     3A1    -1.204011

    Alpha Virtual:

       4A1    -0.194787     5A1    -0.080731     2B1    -0.071423
       2B2    -0.071423     6A1    -0.042196     7A1     0.017430
       3B1     0.037029     3B2     0.037029     8A1     0.147265
       1A2     0.295292     9A1     0.295292    10A1     0.325472
       4B2     0.414244     4B1     0.414244     5B1     0.506297
       5B2     0.506297    11A1     0.548580    12A1     0.599902
       2A2     0.629963    13A1     0.629963     6B1     0.656848
       6B2     0.656848    14A1     0.688647     7B2     1.123240
       7B1     1.123240    15A1     1.322574    16A1     1.542786
       3A2     1.604878    17A1     1.604878     8B2     1.618063
       8B1     1.618063     9B1     1.817409     9B2     1.817409
       4A2     1.890307    18A1     1.890307    19A1     2.024486
      20A1     2.110285    10B1     2.319801    10B2     2.319801
      21A1     3.066587    11B1     3.483826    11B2     3.483826
       5A2     3.565833    22A1     3.565833    12B1     3.870435
      12B2     3.870435    23A1     4.068269    24A1     4.541409
      13B1     4.649962    13B2     4.649962    25A1     5.677721
      14B1     5.868438    14B2     5.868438     6A2     6.033722
      26A1     6.033722     7A2     6.361340    27A1     6.361340
      15B1     6.524801    15B2     6.524801    16B1     6.629491
      16B2     6.629491    28A1     6.772473    29A1     7.038756
      30A1    11.465950

    Beta Occupied:

       1A1   -21.167299     2A1    -1.634643     3A1    -1.111645

    Beta Virtual:

       1B1    -0.340943     1B2    -0.340943     4A1    -0.179227
       5A1    -0.074325     2B1    -0.036977     2B2    -0.036977
       6A1    -0.035410     7A1     0.022929     3B1     0.042272
       3B2     0.042272     8A1     0.160576     9A1     0.326236
       1A2     0.326236    10A1     0.332675     4B1     0.429894
       4B2     0.429894    11A1     0.555310     5B1     0.602878
       5B2     0.602878    12A1     0.623532    13A1     0.633757
       2A2     0.633757     6B1     0.690560     6B2     0.690560
      14A1     0.702575     7B1     1.139115     7B2     1.139115
      15A1     1.353405    16A1     1.587460     8B1     1.651974
       8B2     1.651974    17A1     1.747339     3A2     1.747339
       9B1     1.873948     9B2     1.873948    18A1     1.921190
       4A2     1.921190    19A1     2.054013    20A1     2.142919
      10B1     2.357639    10B2     2.357639    21A1     3.075200
      22A1     3.568805     5A2     3.568805    11B2     3.632291
      11B1     3.632291    12B1     3.865998    12B2     3.865998
      23A1     4.091705    24A1     4.573178    13B2     4.696377
      13B1     4.696377    25A1     5.723787    14B1     5.980633
      14B2     5.980633    26A1     6.117428     6A2     6.117428
      27A1     6.558568     7A2     6.558568    15B2     6.583511
      15B1     6.583511    16B2     6.740256    16B1     6.740256
      28A1     6.811203    29A1     7.104655    30A1    11.539831

    Final Occupation by Irrep:
             A1    A2    B1    B2
    DOCC [     3,    0,    0,    0 ]
    SOCC [     0,    0,    1,    1 ]

  @UHF Final Energy:   -75.00438799274838

   => Energetics <=

    Nuclear Repulsion Energy =              4.1356598882716415
    One-Electron Energy =                -107.5079401614259922
    Two-Electron Energy =                  28.3678922804059788
    Total Energy =                        -75.0043879927483630

  UHF NO Occupations:
  HONO-2 :    3 A1 1.9946658
  HONO-1 :    1 B2 1.0000000
  HONO-0 :    1 B1 1.0000000
  LUNO+0 :    4 A1 0.0053342
  LUNO+1 :    5 A1 0.0016175
  LUNO+2 :    6 A1 0.0000026
  LUNO+3 :    2 B2 0.0000000

Computation Completed

Properties will be evaluated at   0.000000,   0.000000,   0.000000 [a0]

Properties computed using the SCF density matrix

  Nuclear Dipole Moment: [e a0]
     X:     0.0000      Y:     0.0000      Z:    -0.9025

  Electronic Dipole Moment: [e a0]
     X:     0.0000      Y:     0.0000      Z:    -0.0263

  Dipole Moment: [e a0]
     X:     0.0000      Y:     0.0000      Z:    -0.9288     Total:     0.9288

  Dipole Moment: [D]
     X:     0.0000      Y:     0.0000      Z:    -2.3607     Total:     2.3607

*** tstop() called on n412-040.vsc4.prov at Tue Jan 26 18:23:58 2021
Module time:
	user time   =      25.42 seconds =       0.42 minutes
	system time =       0.99 seconds =       0.02 minutes
	total time  =          2 seconds =       0.03 minutes
Total time:
	user time   =      25.42 seconds =       0.42 minutes
	system time =       0.99 seconds =       0.02 minutes
	total time  =          2 seconds =       0.03 minutes

*** tstart() called on n412-040.vsc4.prov
*** at Tue Jan 26 18:23:58 2021

	Wfn Parameters:
	--------------------
	Wavefunction         = CCSD_T
	Number of irreps     = 4
	Number of MOs        = 69
	Number of active MOs = 68
	AO-Basis             = NONE
	Semicanonical        = false
	Reference            = UHF
	Print Level          = 1

	IRREP	# MOs	# FZDC	# DOCC	# SOCC	# VIRT	# FZVR
	-----	-----	------	------	------	------	------
	 A1	   30	    1	    2	    0	    27	    0
	 A2	   7	    0	    0	    0	    7	    0
	 B1	   16	    0	    0	    1	    15	    0
	 B2	   16	    0	    0	    1	    15	    0
	Transforming integrals...
	IWL integrals will be deleted.
	(OO|OO)...
	Presorting SO-basis two-electron integrals.
	Sorting File: SO Ints (nn|nn) nbuckets = 1
	Constructing frozen core operators
	Starting AA/AB first half-transformation.
	Sorting AA/AB half-transformed integrals.
	Starting BB first half-transformation.
	Sorting BB half-transformed integrals.
	First half integral transformation complete.
	Starting AA second half-transformation.
	Starting AB second half-transformation.
	Starting BB second half-transformation.
	Two-electron integral transformation complete.
	(OO|OV)...
	Starting AA second half-transformation.
	Starting AB second half-transformation.
	Starting BB second half-transformation.
	Two-electron integral transformation complete.
	(OO|VV)...
	Starting AA second half-transformation.
	Starting AB second half-transformation.
	Starting BB second half-transformation.
	Two-electron integral transformation complete.
	(OV|OO)...
	Starting AA/AB first half-transformation.
	Sorting AA/AB half-transformed integrals.
	Starting BB first half-transformation.
	Sorting BB half-transformed integrals.
	First half integral transformation complete.
	Starting AA second half-transformation.
	Starting AB second half-transformation.
	Starting BB second half-transformation.
	Two-electron integral transformation complete.
	(OV|OV)...
	Starting AA second half-transformation.
	Starting AB second half-transformation.
	Starting BB second half-transformation.
	Two-electron integral transformation complete.
	(OV|VV)...
	Starting AA second half-transformation.
	Starting AB second half-transformation.
	Starting BB second half-transformation.
	Two-electron integral transformation complete.
	(VV|OO)...
	Starting AA/AB first half-transformation.
	Sorting AA/AB half-transformed integrals.
	Starting BB first half-transformation.
	Sorting BB half-transformed integrals.
	First half integral transformation complete.
	Starting AA second half-transformation.
	Starting AB second half-transformation.
	Starting BB second half-transformation.
	Two-electron integral transformation complete.
	(VV|OV)...
	Starting AA second half-transformation.
	Starting AB second half-transformation.
	Starting BB second half-transformation.
	Two-electron integral transformation complete.
	(VV|VV)...
	Starting AA second half-transformation.
	Starting AB second half-transformation.
	Starting BB second half-transformation.
	Two-electron integral transformation complete.
	Frozen core energy     =    -60.13954084011653

	Size of irrep 0 of <AB|CD> integrals:      0.339 (MW) /      2.710 (MB)
	Size of irrep 1 of <AB|CD> integrals:      0.171 (MW) /      1.371 (MB)
	Size of irrep 2 of <AB|CD> integrals:      0.260 (MW) /      2.081 (MB)
	Size of irrep 3 of <AB|CD> integrals:      0.260 (MW) /      2.081 (MB)
	Total:                                     1.030 (MW) /      8.243 (MB)

	Size of irrep 0 of <ab|cd> integrals:      0.375 (MW) /      2.996 (MB)
	Size of irrep 1 of <ab|cd> integrals:      0.198 (MW) /      1.584 (MB)
	Size of irrep 2 of <ab|cd> integrals:      0.296 (MW) /      2.367 (MB)
	Size of irrep 3 of <ab|cd> integrals:      0.296 (MW) /      2.367 (MB)
	Total:                                     1.164 (MW) /      9.316 (MB)

	Size of irrep 0 of <Ab|Cd> integrals:      1.583 (MW) /     12.661 (MB)
	Size of irrep 1 of <Ab|Cd> integrals:      0.736 (MW) /      5.889 (MB)
	Size of irrep 2 of <Ab|Cd> integrals:      1.111 (MW) /      8.887 (MB)
	Size of irrep 3 of <Ab|Cd> integrals:      1.111 (MW) /      8.887 (MB)
	Total:                                     4.541 (MW) /     36.324 (MB)

	Size of irrep 0 of <IA|BC> integrals:      0.103 (MW) /      0.825 (MB)
	Size of irrep 1 of <IA|BC> integrals:      0.036 (MW) /      0.291 (MB)
	Size of irrep 2 of <IA|BC> integrals:      0.065 (MW) /      0.522 (MB)
	Size of irrep 3 of <IA|BC> integrals:      0.065 (MW) /      0.522 (MB)
	Total:                                     0.270 (MW) /      2.161 (MB)

	Size of irrep 0 of <ia|bc> integrals:      0.070 (MW) /      0.557 (MB)
	Size of irrep 1 of <ia|bc> integrals:      0.012 (MW) /      0.100 (MB)
	Size of irrep 2 of <ia|bc> integrals:      0.035 (MW) /      0.279 (MB)
	Size of irrep 3 of <ia|bc> integrals:      0.035 (MW) /      0.279 (MB)
	Total:                                     0.152 (MW) /      1.214 (MB)

	Size of irrep 0 of <Ia|Bc> integrals:      0.108 (MW) /      0.866 (MB)
	Size of irrep 1 of <Ia|Bc> integrals:      0.039 (MW) /      0.316 (MB)
	Size of irrep 2 of <Ia|Bc> integrals:      0.070 (MW) /      0.557 (MB)
	Size of irrep 3 of <Ia|Bc> integrals:      0.070 (MW) /      0.557 (MB)
	Total:                                     0.287 (MW) /      2.294 (MB)

	Size of irrep 0 of <iA|bC> integrals:      0.068 (MW) /      0.543 (MB)
	Size of irrep 1 of <iA|bC> integrals:      0.012 (MW) /      0.096 (MB)
	Size of irrep 2 of <iA|bC> integrals:      0.032 (MW) /      0.253 (MB)
	Size of irrep 3 of <iA|bC> integrals:      0.032 (MW) /      0.253 (MB)
	Total:                                     0.143 (MW) /      1.145 (MB)

	Size of irrep 0 of tIjAb amplitudes:       0.005 (MW) /      0.040 (MB)
	Size of irrep 1 of tIjAb amplitudes:       0.000 (MW) /      0.000 (MB)
	Size of irrep 2 of tIjAb amplitudes:       0.002 (MW) /      0.017 (MB)
	Size of irrep 3 of tIjAb amplitudes:       0.002 (MW) /      0.017 (MB)
	Total:                                     0.009 (MW) /      0.074 (MB)

	Nuclear Rep. energy          =      4.13565988827164
	SCF energy                   =    -75.00438799274838
	One-electron energy          =    -29.65137767856301
	Two-electron (AA) energy     =      4.04716175694265
	Two-electron (BB) energy     =      0.56074677665053
	Two-electron (AB) energy     =      6.04296210406627
	Two-electron energy          =     10.65087063765945
	Reference energy             =    -75.00438799274845

*** tstop() called on n412-040.vsc4.prov at Tue Jan 26 18:24:02 2021
Module time:
	user time   =       0.69 seconds =       0.01 minutes
	system time =       0.53 seconds =       0.01 minutes
	total time  =          4 seconds =       0.07 minutes
Total time:
	user time   =      26.11 seconds =       0.44 minutes
	system time =       1.52 seconds =       0.03 minutes
	total time  =          6 seconds =       0.10 minutes
            **************************
            *                        *
            *        CCENERGY        *
            *                        *
            **************************

    Nuclear Rep. energy (wfn)     =    4.135659888271642
    SCF energy          (wfn)     =  -75.004387992748377
    Reference energy    (file100) =  -75.004387992748448

    Input parameters:
    -----------------
    Wave function   =     CCSD_T
    Reference wfn   =     UHF
    Brueckner       =     No
    Memory (Mbytes) =     250000.0
    Maxiter         =     50
    R_Convergence   =     1.0e-07
    E_Convergence   =     1.0e-06
    Restart         =     Yes
    DIIS            =     Yes
    AO Basis        =     NONE
    ABCD            =     NEW
    Cache Level     =     2
    Cache Type      =     LRU
    Print Level     =     1
    Num. of threads =     48
    # Amps to Print =     10
    Print MP2 Amps? =     No
    Analyze T2 Amps =     No
    Print Pair Ener =     No
    Local CC        =     No
    SCS-MP2         =     False
    SCSN-MP2        =     False
    SCS-CCSD        =     False

MP2 correlation energy -0.1456590652023658
                Solving CC Amplitude Equations
                ------------------------------
  Iter             Energy              RMS        T1Diag      D1Diag    New D1Diag    D2Diag
  ----     ---------------------    ---------   ----------  ----------  ----------   --------
     0        -0.145659065202366    0.000e+00    0.000000    0.000000    0.000000    0.000000
     1        -0.159014451370819    3.126e-02    0.007133    0.000000    0.000000    0.000000
     2        -0.163449236357940    1.207e-02    0.010607    0.000000    0.000000    0.000000
     3        -0.163778326174949    4.059e-03    0.011851    0.000000    0.000000    0.000000
     4        -0.163771198439057    1.802e-03    0.012084    0.000000    0.000000    0.000000
     5        -0.163810643364701    8.015e-04    0.012093    0.000000    0.000000    0.000000
     6        -0.163819476964048    2.325e-04    0.012072    0.000000    0.000000    0.000000
     7        -0.163819388915293    7.433e-05    0.012067    0.000000    0.000000    0.000000
     8        -0.163819054737437    2.425e-05    0.012070    0.000000    0.000000    0.000000
     9        -0.163818841750975    6.886e-06    0.012071    0.000000    0.000000    0.000000
    10        -0.163818853090996    1.833e-06    0.012072    0.000000    0.000000    0.000000
    11        -0.163818850902921    5.960e-07    0.012072    0.000000    0.000000    0.000000
    12        -0.163818857914605    1.786e-07    0.012072    0.000000    0.000000    0.000000
    13        -0.163818857658404    5.751e-08    0.012072    0.000000    0.000000    0.000000

    Iterations converged.

    Largest TIA Amplitudes:
              1   0         0.0084421097
              1   1         0.0068948332
              3  49        -0.0065754633
              2  34        -0.0065754633
              0   0        -0.0056303122
              2  37        -0.0051015841
              3  52        -0.0051015841
              1   4        -0.0048712271
              0   2        -0.0045521097
              1   3        -0.0038525972

    Largest Tia Amplitudes:
              0   0        -0.0077352247
              0   4         0.0072302434
              0   6        -0.0059042613
              0   1        -0.0056791814
              0  12        -0.0055840390
              0   2        -0.0050741143
              0  10        -0.0046313490
              1   6         0.0042187871
              1  19         0.0035559333
              0  11         0.0035329781

    Largest TIJAB Amplitudes:
      3   2  52  37        -0.0141756490
      3   2  29  13        -0.0139318108
      3   1  52   8        -0.0105877199
      2   1  37   8        -0.0105877198
      3   1  52   1         0.0085514235
      2   1  37   1         0.0085514234
      3   2  58  43        -0.0083330641
      3   2  52  43        -0.0082010088
      3   2  58  37        -0.0082010088
      3   2  27  13        -0.0081637826

    Largest Tijab Amplitudes:
      1   0  37  34         0.0086299490
      1   0  53  50         0.0086299490
      1   0  58  50        -0.0068722110
      1   0  42  34        -0.0068722110
      1   0  40  34         0.0063692236
      1   0  56  50         0.0063692236
      1   0   8   0         0.0054168690
      1   0  36  34         0.0047185349
      1   0  52  50         0.0047185349
      1   0   8   4        -0.0046693505

    Largest TIjAb Amplitudes:
      3   0  13  50        -0.0228761905
      2   0  29  50         0.0228761905
      3   0  29  34         0.0228761905
      2   0  13  34         0.0228761905
      1   1   0   0        -0.0173294901
      1   1   8   8        -0.0171871101
      1   1   0   4         0.0168751658
      3   0   5  50        -0.0158201639
      3   0  27  34         0.0158201638
      2   0  27  50         0.0158201637

    SCF energy       (wfn)                    =  -75.004387992748377
    Reference energy (file100)                =  -75.004387992748448

    Opposite-spin MP2 correlation energy      =   -0.111217577476053
    Same-spin MP2 correlation energy          =   -0.034441487726313
    Singles MP2 correlation energy            =   -0.000000000000000
    MP2 correlation energy                    =   -0.145659065202366
      * MP2 total energy                      =  -75.150047057950815

    Opposite-spin CCSD correlation energy     =   -0.128801278252970
    Same-spin CCSD correlation energy         =   -0.035017579405434

      * CCSD total energy                     =  -75.168206850406847
      * CCSD(T) total energy                     =  -75.171431799713105
*** Psi4 exiting successfully. Buy a developer a beer!
