                               Psi4 1.2a1.dev939

  ==> Input File <==

--------------------------------------------------------------------------
# Any line starting with the # character is a comment line

memory 32000 mb

molecule molecule {
0 1
S          0.0000000000        0.0000000000        0.0391770833
H          0.9606903443        0.0000000000       -0.8857306917
H         -0.9606903443        0.0000000000       -0.8857306917
}

set {
  reference rhf
  basis aug-cc-pv(T+d)z
  scf_type OUT_OF_CORE
  freeze_core true
}

energy('ccsd')
--------------------------------------------------------------------------

    Molecular point group: c2v

    Geometry (in Angstrom), charge = 0, multiplicity = 1:

       Center              X                  Y                   Z               Mass
    ------------   -----------------  -----------------  -----------------  -----------------
           S          0.000000000000    -0.000000000000     0.054851880552    31.972070999000
           H          0.960690344300     0.000000000000    -0.870055894448     1.007825032070
           H         -0.960690344300    -0.000000000000    -0.870055894448     1.007825032070

  Charge       = 0
  Multiplicity = 1
  Basis Set: AUG-CC-PV(T+D)Z
    Blend: AUG-CC-PV(T+D)Z

    Orbital Energies (a.u.)
    -----------------------

    Doubly Occupied:

       1A1   -91.965475     2A1    -8.967623     1B1    -6.648979
       3A1    -6.648209     1B2    -6.646881     4A1    -0.982518
       2B1    -0.591181     5A1    -0.502468     2B2    -0.385259

  @RHF Final Energy:  -398.71599261346228

   => Energetics <=

    Nuclear Repulsion Energy =             12.9735163455407001
    One-Electron Energy =                -576.7018308573520926
    Two-Electron Energy =                 165.0123218983491142
    PCM Polarization Energy =               0.0000000000000000
    Total Energy =                       -398.7159926134622765
      * MP2 total energy                      = -398.911013801390823
      * CCSD total energy                     = -398.934919667786346
*** Psi4 exiting successfully. Buy a developer a beer!
