                               Psi4 1.2a1.dev939

  ==> Input File <==

--------------------------------------------------------------------------
# Any line starting with the # character is a comment line

memory 250000 mb

molecule molecule {
0 1
S          0.0000000000        0.0000000000        0.0391770833
H          0.9606903443        0.0000000000       -0.8857306917
H         -0.9606903443        0.0000000000       -0.8857306917
}

set {
  reference rhf

  basis aug-cc-pv(6+d)z
  scf_type OUT_OF_CORE
  freeze_core true
}

energy('ccsd')
--------------------------------------------------------------------------

    Molecular point group: c2v

    Geometry (in Angstrom), charge = 0, multiplicity = 1:

       Center              X                  Y                   Z               Mass
    ------------   -----------------  -----------------  -----------------  -----------------
           S          0.000000000000    -0.000000000000     0.054851880552    31.972070999000
           H          0.960690344300     0.000000000000    -0.870055894448     1.007825032070
           H         -0.960690344300    -0.000000000000    -0.870055894448     1.007825032070

  Charge       = 0
  Multiplicity = 1
  Basis Set: AUG-CC-PV(6+D)Z
    Blend: AUG-CC-PV(6+D)Z

    Orbital Energies (a.u.)
    -----------------------

    Doubly Occupied:

       1A1   -91.964301     2A1    -8.966892     1B1    -6.648328
       3A1    -6.647734     1B2    -6.646866     4A1    -0.982177
       2B1    -0.591136     5A1    -0.502463     2B2    -0.385301

  @RHF Final Energy:  -398.72025376733257

   => Energetics <=

    Nuclear Repulsion Energy =             12.9735163455407001
    One-Electron Energy =                -576.7171453276083639
    Two-Electron Energy =                 165.0233752147350685
    PCM Polarization Energy =               0.0000000000000000
    Total Energy =                       -398.7202537673325651
      * MP2 total energy                      = -398.937497249078888
      * CCSD total energy                     = -398.955471890295939
*** Psi4 exiting successfully. Buy a developer a beer!
