                               Psi4 1.2a1.dev939

  ==> Input File <==

--------------------------------------------------------------------------
# Any line starting with the # character is a comment line

memory 32000 mb

molecule molecule {
0 1
S          0.0000000000        0.0000000000        0.0391770833
H          0.9606903443        0.0000000000       -0.8857306917
H         -0.9606903443        0.0000000000       -0.8857306917
}

set {
  reference rhf

  basis aug-cc-pv(5+d)z
  scf_type OUT_OF_CORE
  freeze_core true
}

energy('ccsd')
--------------------------------------------------------------------------

    Molecular point group: c2v

    Geometry (in Angstrom), charge = 0, multiplicity = 1:

       Center              X                  Y                   Z               Mass
    ------------   -----------------  -----------------  -----------------  -----------------
           S          0.000000000000    -0.000000000000     0.054851880552    31.972070999000
           H          0.960690344300     0.000000000000    -0.870055894448     1.007825032070
           H         -0.960690344300    -0.000000000000    -0.870055894448     1.007825032070

  Charge       = 0
  Multiplicity = 1
  Basis Set: AUG-CC-PV(5+D)Z
    Blend: AUG-CC-PV(5+D)Z

    Orbital Energies (a.u.)
    -----------------------

    Doubly Occupied:

       1A1   -91.964309     2A1    -8.966964     1B1    -6.648439
       3A1    -6.647791     1B2    -6.646829     4A1    -0.982218
       2B1    -0.591143     5A1    -0.502459     2B2    -0.385291

  @RHF Final Energy:  -398.72005692198292

   => Energetics <=

    Nuclear Repulsion Energy =             12.9735163455407001
    One-Electron Energy =                -576.7162594089908225
    Two-Electron Energy =                 165.0226861414672044
    Total Energy =                       -398.7200569219829163
      * MP2 total energy                      = -398.934533466454468
      * CCSD total energy                     = -398.953753308851617
*** Psi4 exiting successfully. Buy a developer a beer!
