                               Psi4 1.4a3.dev88

  ==> Input File <==

--------------------------------------------------------------------------
# Any line starting with the # character is a comment line
memory 250000 mb
molecule molecule{
0 1
S          0.0000000000        0.0000000000       -0.0547163639
H          0.0000000000        0.9606869869        0.8701939739
H          0.0000000000       -0.9606869869        0.8701939739
}

set {
  reference rhf
  basis aug-cc-pV(t+d)Z
  scf_type OUT_OF_CORE
  freeze_core true
}

energy('ccsd(t)')
--------------------------------------------------------------------------

    Molecular point group: c2v

    Geometry (in Angstrom), charge = 0, multiplicity = 1:

       Center              X                  Y                   Z               Mass
    ------------   -----------------  -----------------  -----------------  -----------------
         S           -0.000000000000     0.000000000000    -0.054852032265    31.972071174400
         H           -0.000000000000     0.960686986900     0.870058305535     1.007825032230
         H            0.000000000000    -0.960686986900     0.870058305535     1.007825032230

  Charge       = 0
  Multiplicity = 1
  Basis Set: AUG-CC-PV(T+D)Z
    Blend: AUG-CC-PV(T+D)Z

    Orbital Energies [Eh]
    ---------------------

    Doubly Occupied:

       1A1   -91.965475     2A1    -8.967623     1B2    -6.648979
       3A1    -6.648209     1B1    -6.646881     4A1    -0.982519
       2B2    -0.591180     5A1    -0.502468     2B1    -0.385259

  @RHF Final Energy:  -398.71599257967910

   => Energetics <=

    Nuclear Repulsion Energy =             12.9735234644038684
    One-Electron Energy =                -576.7018448172736953
    Two-Electron Energy =                 165.0123287731907453
    Total Energy =                       -398.7159925796790390

  Dipole Moment: [D]
     X:     0.0000      Y:     0.0000      Z:     1.0747     Total:     1.0747

      * MP2 total energy                      = -398.911013801573006
      * CCSD total energy                     = -398.934919655463489
      * CCSD(T) total energy                  = -398.943590842310016
*** Psi4 exiting successfully. Buy a developer a beer!
