                               Psi4 1.4a3.dev88

  ==> Input File <==

--------------------------------------------------------------------------
# Any line starting with the # character is a comment line
memory 250000 mb
molecule molecule{
0 1
S          0.0000000000        0.0000000000       -0.0547163639
H          0.0000000000        0.9606869869        0.8701939739
H          0.0000000000       -0.9606869869        0.8701939739
}

set {
  reference rhf
  basis aug-cc-pV(6+d)Z
  scf_type OUT_OF_CORE
  freeze_core true
}

energy('ccsd(t)')
--------------------------------------------------------------------------

    Molecular point group: c2v

    Geometry (in Angstrom), charge = 0, multiplicity = 1:

       Center              X                  Y                   Z               Mass
    ------------   -----------------  -----------------  -----------------  -----------------
         S           -0.000000000000     0.000000000000    -0.054852032265    31.972071174400
         H           -0.000000000000     0.960686986900     0.870058305535     1.007825032230
         H            0.000000000000    -0.960686986900     0.870058305535     1.007825032230

  Charge       = 0
  Multiplicity = 1
  Basis Set: AUG-CC-PV(6+D)Z
    Blend: AUG-CC-PV(6+D)Z

    Orbital Energies [Eh]
    ---------------------

    Doubly Occupied:

       1A1   -91.964301     2A1    -8.966892     1B2    -6.648328
       3A1    -6.647734     1B1    -6.646866     4A1    -0.982177
       2B2    -0.591135     5A1    -0.502464     2B1    -0.385301

  @RHF Final Energy:  -398.72025373472331

   => Energetics <=

    Nuclear Repulsion Energy =             12.9735234644038684
    One-Electron Energy =                -576.7171573151611028
    Two-Electron Energy =                 165.0233801160338487
    Total Energy =                       -398.7202537347233147

  Dipole Moment: [D]
     X:     0.0000      Y:     0.0000      Z:     1.0672     Total:     1.0672

      * MP2 total energy                      = -398.937497249492367
      * CCSD total energy                     = -398.955471880171160
      * CCSD(T) total energy                  = -398.965531386389898
*** Psi4 exiting successfully. Buy a developer a beer!
