                               Psi4 1.2a1.dev939

  ==> Input File <==

--------------------------------------------------------------------------
# Any line starting with the # character is a comment line
memory 250000 mb
molecule molecule{
1 2
N          0.0000000000        0.0000000000        0.5946924389
N          0.0000000000        0.0000000000       -0.5946924389
}

set {
  reference uhf
  basis aug-cc-pv(t+d)z
  scf_type OUT_OF_CORE
  freeze_core true
  DOCC [     3,    0,    0,    0,    0,    2,    1,    0 ]
  SOCC [     0,    0,    0,    0,    0,    0,    0,    1 ]
}

energy('ccsd')
--------------------------------------------------------------------------

    Molecular point group: d2h

    Geometry (in Angstrom), charge = 1, multiplicity = 2:

       Center              X                  Y                   Z               Mass
    ------------   -----------------  -----------------  -----------------  -----------------
           N          0.000000000000     0.000000000000     0.594692438900    14.003074004780
           N          0.000000000000     0.000000000000    -0.594692438900    14.003074004780

  Charge       = 1
  Multiplicity = 2
  Basis Set: AUG-CC-PV(T+D)Z
    Blend: AUG-CC-PV(T+D)Z

    Orbital Energies (a.u.)
    -----------------------

    Alpha Occupied:

       1Ag   -16.191223     1B1u  -16.188857     2Ag    -1.904939
       2B1u   -1.233424     1B3u   -1.067312     3Ag    -1.040031
       1B2u   -1.012936

    Alpha Virtual:

       1B2g   -0.320593     1B3g   -0.278691     4Ag    -0.100836
       3B1u   -0.077060     2B3u   -0.076251     2B2u   -0.069438
       5Ag    -0.023990     2B2g   -0.005269     2B3g   -0.000928
       4B1u    0.087755     6Ag     0.124033     1B1g    0.124235
       5B1u    0.219738     7Ag     0.229733     3B3u    0.303970
       3B2u    0.313937     1Au     0.325829     6B1u    0.326141
       3B2g    0.330040     3B3g    0.338788     4B3u    0.393301
       4B2u    0.418152     7B1u    0.421991     8Ag     0.481319
       8B1u    0.614460     4B2g    0.718650     4B3g    0.735344
       9Ag     0.849972     2B1g    0.950919    10Ag     0.953945
       5B3u    1.021087     5B2u    1.021154     6B3u    1.071198
       6B2u    1.100375     9B1u    1.236523     2Au     1.237224
      10B1u    1.280279    11Ag     1.327414     3B1g    1.341733
      12Ag     1.349922     5B2g    1.363989     5B3g    1.367715
       6B2g    1.373412     6B3g    1.385687    11B1u    1.701386
       7B3u    1.744021     7B2u    1.764929    12B1u    1.882537
       3Au     1.883003     7B2g    2.068761     7B3g    2.094493
      13B1u    2.163738    13Ag     2.442363     8B3u    2.846186
       8B2u    2.882109    14Ag     3.406486     8B2g    3.668079
       8B3g    3.706612    15Ag     3.995103     4B1g    3.998097
       9B3u    4.002206     9B2u    4.040227    16Ag     4.064357
      10B3u    4.266895    10B2u    4.266912    14B1u    4.268146
       9B2g    4.553263     9B3g    4.553277     5B1g    4.587596
      17Ag     4.588167    15B1u    4.600457     4Au     4.698388
      16B1u    4.700873    11B3u    5.029555    10B2g    5.040039
      11B2u    5.062835    10B3g    5.069219     5Au     5.123148
      17B1u    5.123625    18Ag     5.917095    11B2g    6.039878
      11B3g    6.076093    18B1u    6.091416    19Ag    10.176539
      19B1u   14.924683

    Beta Occupied:

       1Ag   -16.177930     1B1u  -16.176045     2Ag    -1.804019
       2B1u   -1.186906     3Ag    -1.023989     1B2u   -0.991928

    Beta Virtual:

       1B3u   -0.483222     1B3g   -0.266029     1B2g   -0.164513
       4Ag    -0.096966     3B1u   -0.075742     2B2u   -0.068740
       2B3u   -0.063912     5Ag    -0.022277     2B3g   -0.000061
       2B2g    0.007167     4B1u    0.091023     1B1g    0.138825
       6Ag     0.138949     5B1u    0.233072     7Ag     0.237046
       3B3u    0.312927     3B2u    0.314130     6B1u    0.328852
       1Au     0.328909     3B3g    0.340559     3B2g    0.350347
       4B2u    0.423101     7B1u    0.438869     4B3u    0.444266
       8Ag     0.486160     8B1u    0.620871     4B3g    0.738085
       4B2g    0.744212     9Ag     0.870469     2B1g    0.997268
      10Ag     0.997694     5B2u    1.033674     5B3u    1.033677
       6B2u    1.104267     6B3u    1.116707     9B1u    1.254353
       2Au     1.255207    10B1u    1.289762    11Ag     1.338965
       3B1g    1.348811    12Ag     1.351279     5B2g    1.373435
       5B3g    1.374347     6B2g    1.380122     6B3g    1.385352
      11B1u    1.703394     7B3u    1.762246     7B2u    1.767597
      12B1u    1.897394     3Au     1.897582     7B3g    2.098525
       7B2g    2.102313    13B1u    2.174594    13Ag     2.455895
       8B2u    2.889959     8B3u    2.905936    14Ag     3.427595
       8B2g    3.712350     8B3g    3.713950     4B1g    4.027961
      15Ag     4.028025     9B2u    4.045699     9B3u    4.046807
      16Ag     4.076787    14B1u    4.277137    10B2u    4.292750
      10B3u    4.292750     9B3g    4.576536     9B2g    4.576536
      15B1u    4.613483     5B1g    4.621751    17Ag     4.621821
       4Au     4.728820    16B1u    4.728979    11B3u    5.056617
      11B2u    5.066206    10B2g    5.068169    10B3g    5.072218
       5Au     5.145145    17B1u    5.145236    18Ag     5.924112
      11B2g    6.066655    11B3g    6.080619    18B1u    6.102478
      19Ag    10.187862    19B1u   14.937630

    Final Occupation by Irrep:
             Ag   B1g   B2g   B3g    Au   B1u   B2u   B3u
    DOCC [     3,    0,    0,    0,    0,    2,    1,    0 ]
    SOCC [     0,    0,    0,    0,    0,    0,    0,    1 ]

  Energy converged.

  @UHF Final Energy:  -108.41971277187298

   => Energetics <=

    Nuclear Repulsion Energy =             21.8009188656173407
    One-Electron Energy =                -184.4417245292939356
    Two-Electron Energy =                  54.2210928918036217
    Total Energy =                       -108.4197127718729661

  UHF NO Occupations:
  HONO-2 :    2B1u 1.9992890
  HONO-1 :    3 Ag 1.9991807
  HONO-0 :    1B3u 1.0000000
  LUNO+0 :    4 Ag 0.0008193
  LUNO+1 :    3B1u 0.0007110
  LUNO+2 :    2B2u 0.0000664
  LUNO+3 :    5 Ag 0.0000610

Properties will be evaluated at   0.000000,   0.000000,   0.000000 Bohr

Properties computed using the SCF density matrix

  Nuclear Dipole Moment: (a.u.)
     X:     0.0000      Y:     0.0000      Z:    -0.0000

  Electronic Dipole Moment: (a.u.)
     X:     0.0000      Y:     0.0000      Z:     0.0000

  Dipole Moment: (a.u.)
     X:     0.0000      Y:     0.0000      Z:    -0.0000     Total:     0.0000

  Dipole Moment: (Debye)
     X:     0.0000      Y:     0.0000      Z:    -0.0000     Total:     0.0000

*** tstop() called on l49 at Thu Jan 14 15:10:13 2021
Module time:
	user time   =       1.14 seconds =       0.02 minutes
	system time =       0.08 seconds =       0.00 minutes
	total time  =          1 seconds =       0.02 minutes
Total time:
	user time   =       1.14 seconds =       0.02 minutes
	system time =       0.08 seconds =       0.00 minutes
	total time  =          1 seconds =       0.02 minutes

*** tstart() called on l49
*** at Thu Jan 14 15:10:13 2021

	Wfn Parameters:
	--------------------
	Wavefunction         = CCSD
	Number of irreps     = 8
	Number of MOs        = 92
	Number of active MOs = 90
	AO-Basis             = NONE
	Semicanonical        = false
	Reference            = UHF
	Print Level          = 1

	IRREP	# MOs	# FZDC	# DOCC	# SOCC	# VIRT	# FZVR
	-----	-----	------	------	------	------	------
	 Ag	   19	    1	    2	    0	    16	    0
	 B1g	   5	    0	    0	    0	    5	    0
	 B2g	   11	    0	    0	    0	    11	    0
	 B3g	   11	    0	    0	    0	    11	    0
	 Au	   5	    0	    0	    0	    5	    0
	 B1u	   19	    1	    1	    0	    17	    0
	 B2u	   11	    0	    1	    0	    10	    0
	 B3u	   11	    0	    0	    1	    10	    0
	Transforming integrals...
	IWL integrals will be deleted.
	(OO|OO)...
	Presorting SO-basis two-electron integrals.
	Sorting File: SO Ints (nn|nn) nbuckets = 1
	Transforming the one-electron integrals and constructing Fock matrices
	Starting AA/AB first half-transformation.
	Sorting AA/AB half-transformed integrals.
	Starting BB first half-transformation.
	Sorting BB half-transformed integrals.
	First half integral transformation complete.
	Starting AA second half-transformation.
	Starting AB second half-transformation.
	Starting BB second half-transformation.
	Two-electron integral transformation complete.
	(OO|OV)...
	Starting AA second half-transformation.
	Starting AB second half-transformation.
	Starting BB second half-transformation.
	Two-electron integral transformation complete.
	(OO|VV)...
	Starting AA second half-transformation.
	Starting AB second half-transformation.
	Starting BB second half-transformation.
	Two-electron integral transformation complete.
	(OV|OO)...
	Starting AA/AB first half-transformation.
	Sorting AA/AB half-transformed integrals.
	Starting BB first half-transformation.
	Sorting BB half-transformed integrals.
	First half integral transformation complete.
	Starting AA second half-transformation.
	Starting AB second half-transformation.
	Starting BB second half-transformation.
	Two-electron integral transformation complete.
	(OV|OV)...
	Starting AA second half-transformation.
	Starting AB second half-transformation.
	Starting BB second half-transformation.
	Two-electron integral transformation complete.
	(OV|VV)...
	Starting AA second half-transformation.
	Starting AB second half-transformation.
	Starting BB second half-transformation.
	Two-electron integral transformation complete.
	(VV|OO)...
	Starting AA/AB first half-transformation.
	Sorting AA/AB half-transformed integrals.
	Starting BB first half-transformation.
	Sorting BB half-transformed integrals.
	First half integral transformation complete.
	Starting AA second half-transformation.
	Starting AB second half-transformation.
	Starting BB second half-transformation.
	Two-electron integral transformation complete.
	(VV|OV)...
	Starting AA second half-transformation.
	Starting AB second half-transformation.
	Starting BB second half-transformation.
	Two-electron integral transformation complete.
	(VV|VV)...
	Starting AA second half-transformation.
	Starting AB second half-transformation.
	Starting BB second half-transformation.
	Two-electron integral transformation complete.
	Frozen core energy     =   -100.14581227323752

	Size of irrep 0 of <AB|CD> integrals:      0.227 (MW) /      1.813 (MB)
	Size of irrep 1 of <AB|CD> integrals:      0.149 (MW) /      1.192 (MB)
	Size of irrep 2 of <AB|CD> integrals:      0.203 (MW) /      1.627 (MB)
	Size of irrep 3 of <AB|CD> integrals:      0.203 (MW) /      1.627 (MB)
	Size of irrep 4 of <AB|CD> integrals:      0.148 (MW) /      1.186 (MB)
	Size of irrep 5 of <AB|CD> integrals:      0.267 (MW) /      2.138 (MB)
	Size of irrep 6 of <AB|CD> integrals:      0.204 (MW) /      1.634 (MB)
	Size of irrep 7 of <AB|CD> integrals:      0.204 (MW) /      1.634 (MB)
	Total:                                     1.606 (MW) /     12.852 (MB)

	Size of irrep 0 of <ab|cd> integrals:      0.236 (MW) /      1.890 (MB)
	Size of irrep 1 of <ab|cd> integrals:      0.157 (MW) /      1.255 (MB)
	Size of irrep 2 of <ab|cd> integrals:      0.219 (MW) /      1.752 (MB)
	Size of irrep 3 of <ab|cd> integrals:      0.208 (MW) /      1.663 (MB)
	Size of irrep 4 of <ab|cd> integrals:      0.157 (MW) /      1.255 (MB)
	Size of irrep 5 of <ab|cd> integrals:      0.279 (MW) /      2.230 (MB)
	Size of irrep 6 of <ab|cd> integrals:      0.209 (MW) /      1.671 (MB)
	Size of irrep 7 of <ab|cd> integrals:      0.219 (MW) /      1.752 (MB)
	Total:                                     1.683 (MW) /     13.468 (MB)

	Size of irrep 0 of <Ab|Cd> integrals:      1.096 (MW) /      8.770 (MB)
	Size of irrep 1 of <Ab|Cd> integrals:      0.612 (MW) /      4.892 (MB)
	Size of irrep 2 of <Ab|Cd> integrals:      0.845 (MW) /      6.756 (MB)
	Size of irrep 3 of <Ab|Cd> integrals:      0.823 (MW) /      6.581 (MB)
	Size of irrep 4 of <Ab|Cd> integrals:      0.610 (MW) /      4.880 (MB)
	Size of irrep 5 of <Ab|Cd> integrals:      1.092 (MW) /      8.736 (MB)
	Size of irrep 6 of <Ab|Cd> integrals:      0.826 (MW) /      6.610 (MB)
	Size of irrep 7 of <Ab|Cd> integrals:      0.846 (MW) /      6.771 (MB)
	Total:                                     6.750 (MW) /     53.997 (MB)

	Size of irrep 0 of <IA|BC> integrals:      0.072 (MW) /      0.572 (MB)
	Size of irrep 1 of <IA|BC> integrals:      0.027 (MW) /      0.216 (MB)
	Size of irrep 2 of <IA|BC> integrals:      0.049 (MW) /      0.390 (MB)
	Size of irrep 3 of <IA|BC> integrals:      0.049 (MW) /      0.390 (MB)
	Size of irrep 4 of <IA|BC> integrals:      0.028 (MW) /      0.228 (MB)
	Size of irrep 5 of <IA|BC> integrals:      0.074 (MW) /      0.596 (MB)
	Size of irrep 6 of <IA|BC> integrals:      0.047 (MW) /      0.376 (MB)
	Size of irrep 7 of <IA|BC> integrals:      0.047 (MW) /      0.376 (MB)
	Total:                                     0.393 (MW) /      3.144 (MB)

	Size of irrep 0 of <ia|bc> integrals:      0.062 (MW) /      0.499 (MB)
	Size of irrep 1 of <ia|bc> integrals:      0.021 (MW) /      0.165 (MB)
	Size of irrep 2 of <ia|bc> integrals:      0.036 (MW) /      0.285 (MB)
	Size of irrep 3 of <ia|bc> integrals:      0.045 (MW) /      0.358 (MB)
	Size of irrep 4 of <ia|bc> integrals:      0.021 (MW) /      0.165 (MB)
	Size of irrep 5 of <ia|bc> integrals:      0.064 (MW) /      0.515 (MB)
	Size of irrep 6 of <ia|bc> integrals:      0.043 (MW) /      0.344 (MB)
	Size of irrep 7 of <ia|bc> integrals:      0.036 (MW) /      0.285 (MB)
	Total:                                     0.327 (MW) /      2.614 (MB)

	Size of irrep 0 of <Ia|Bc> integrals:      0.073 (MW) /      0.586 (MB)
	Size of irrep 1 of <Ia|Bc> integrals:      0.028 (MW) /      0.225 (MB)
	Size of irrep 2 of <Ia|Bc> integrals:      0.051 (MW) /      0.404 (MB)
	Size of irrep 3 of <Ia|Bc> integrals:      0.049 (MW) /      0.392 (MB)
	Size of irrep 4 of <Ia|Bc> integrals:      0.029 (MW) /      0.231 (MB)
	Size of irrep 5 of <Ia|Bc> integrals:      0.075 (MW) /      0.602 (MB)
	Size of irrep 6 of <Ia|Bc> integrals:      0.047 (MW) /      0.378 (MB)
	Size of irrep 7 of <Ia|Bc> integrals:      0.050 (MW) /      0.397 (MB)
	Total:                                     0.402 (MW) /      3.216 (MB)

	Size of irrep 0 of <iA|bC> integrals:      0.062 (MW) /      0.494 (MB)
	Size of irrep 1 of <iA|bC> integrals:      0.020 (MW) /      0.156 (MB)
	Size of irrep 2 of <iA|bC> integrals:      0.034 (MW) /      0.272 (MB)
	Size of irrep 3 of <iA|bC> integrals:      0.044 (MW) /      0.356 (MB)
	Size of irrep 4 of <iA|bC> integrals:      0.020 (MW) /      0.162 (MB)
	Size of irrep 5 of <iA|bC> integrals:      0.064 (MW) /      0.510 (MB)
	Size of irrep 6 of <iA|bC> integrals:      0.043 (MW) /      0.342 (MB)
	Size of irrep 7 of <iA|bC> integrals:      0.033 (MW) /      0.265 (MB)
	Total:                                     0.320 (MW) /      2.557 (MB)

	Size of irrep 0 of tIjAb amplitudes:       0.006 (MW) /      0.050 (MB)
	Size of irrep 1 of tIjAb amplitudes:       0.001 (MW) /      0.006 (MB)
	Size of irrep 2 of tIjAb amplitudes:       0.001 (MW) /      0.007 (MB)
	Size of irrep 3 of tIjAb amplitudes:       0.002 (MW) /      0.015 (MB)
	Size of irrep 4 of tIjAb amplitudes:       0.000 (MW) /      0.000 (MB)
	Size of irrep 5 of tIjAb amplitudes:       0.004 (MW) /      0.033 (MB)
	Size of irrep 6 of tIjAb amplitudes:       0.004 (MW) /      0.029 (MB)
	Size of irrep 7 of tIjAb amplitudes:       0.002 (MW) /      0.015 (MB)
	Total:                                     0.019 (MW) /      0.156 (MB)

	Nuclear Rep. energy          =     21.80091886561734
	SCF energy                   =   -108.41971277187298
	One-electron energy          =    -48.88415386522847
	Two-electron (AA) energy     =      4.78381061168575
	Two-electron (BB) energy     =      2.76473281712501
	Two-electron (AB) energy     =     11.26079107216490
	Two-electron energy          =     18.80933450097566
	Reference energy             =   -108.41971277187301

*** tstop() called on l49 at Thu Jan 14 15:10:15 2021
Module time:
	user time   =       1.28 seconds =       0.02 minutes
	system time =       0.87 seconds =       0.01 minutes
	total time  =          2 seconds =       0.03 minutes
Total time:
	user time   =       2.42 seconds =       0.04 minutes
	system time =       0.95 seconds =       0.02 minutes
	total time  =          3 seconds =       0.05 minutes

*** tstart() called on l49
*** at Thu Jan 14 15:10:15 2021

            **************************
            *                        *
            *        CCENERGY        *
            *                        *
            **************************

    Nuclear Rep. energy (wfn)     =   21.800918865617341
    SCF energy          (wfn)     = -108.419712771872980
    Reference energy    (file100) = -108.419712771873009

    Input parameters:
    -----------------
    Wave function   =     CCSD
    Reference wfn   =     UHF
    Brueckner       =     No
    Memory (Mbytes) =     250000.0
    Maxiter         =     50
    R_Convergence   =     1.0e-07
    E_Convergence   =     1.0e-06
    Restart         =     Yes
    DIIS            =     Yes
    AO Basis        =     NONE
    ABCD            =     NEW
    Cache Level     =     2
    Cache Type      =     LRU
    Print Level     =     1
    Num. of threads =     1
    # Amps to Print =     10
    Print MP2 Amps? =     No
    Analyze T2 Amps =     No
    Print Pair Ener =     No
    Local CC        =     No
    SCS-MP2         =     False
    SCSN-MP2        =     False
    SCS-CCSD        =     False

MP2 correlation energy -0.3198511960558792
                Solving CC Amplitude Equations
                ------------------------------
  Iter             Energy              RMS        T1Diag      D1Diag    New D1Diag    D2Diag
  ----     ---------------------    ---------   ----------  ----------  ----------   --------
     0        -0.319851196055880    0.000e+00    0.000000    0.000000    0.000000    0.000000
     1        -0.320679509878941    7.192e-02    0.016017    0.000000    0.000000    0.000000
     2        -0.332530410660264    2.411e-02    0.016651    0.000000    0.000000    0.000000
     3        -0.334962740341914    1.056e-02    0.019017    0.000000    0.000000    0.000000
     4        -0.335042813276386    2.387e-03    0.019094    0.000000    0.000000    0.000000
     5        -0.335057961881056    5.764e-04    0.019073    0.000000    0.000000    0.000000
     6        -0.335059272465115    1.692e-04    0.019056    0.000000    0.000000    0.000000
     7        -0.335061864601234    5.398e-05    0.019054    0.000000    0.000000    0.000000
     8        -0.335061033213075    1.807e-05    0.019054    0.000000    0.000000    0.000000
     9        -0.335060792083764    7.890e-06    0.019054    0.000000    0.000000    0.000000
    10        -0.335060973828156    3.372e-06    0.019054    0.000000    0.000000    0.000000
    11        -0.335060931131206    1.325e-06    0.019054    0.000000    0.000000    0.000000
    12        -0.335060986284878    4.492e-07    0.019054    0.000000    0.000000    0.000000
    13        -0.335060962567464    1.572e-07    0.019054    0.000000    0.000000    0.000000
    14        -0.335060965171029    4.729e-08    0.019054    0.000000    0.000000    0.000000
    14        -0.335060965171029    4.729e-08    0.019054    0.000000    0.000000    0.000000

    Iterations converged.

    CCSD corr. energy   =   -0.335060965171029
    PPL corr. energy    =    0.093055967200131
    OS PPL corr. energy =    0.077468575244134
    SS PPL corr. energy =    0.015587391955997
    Largest TIA Amplitudes:
              3  67         0.0198392430
              4  77         0.0144639601
              2  50         0.0118451474
              3  69         0.0114401091
              3  65         0.0109288143
              4  79         0.0097579203
              2  52        -0.0087025422

      * MP2 total energy                      = -108.739563967928888
      * CCSD total energy                     = -108.754773737044033
*** Psi4 exiting successfully. Buy a developer a beer!
