                               Psi4 1.2a1.dev939

  ==> Input File <==

--------------------------------------------------------------------------
# Any line starting with the # character is a comment line
memory 250000 mb
molecule molecule{
1 2
N          0.0000000000        0.0000000000        0.5946924389
N          0.0000000000        0.0000000000       -0.5946924389
}

set {
  reference uhf
  basis aug-cc-pv(5+d)z
  scf_type OUT_OF_CORE
  freeze_core true
  DOCC [     3,    0,    0,    0,    0,    2,    1,    0 ]
  SOCC [     0,    0,    0,    0,    0,    0,    0,    1 ]
}

energy('ccsd')
--------------------------------------------------------------------------

    Molecular point group: d2h

    Geometry (in Angstrom), charge = 1, multiplicity = 2:

       Center              X                  Y                   Z               Mass
    ------------   -----------------  -----------------  -----------------  -----------------
           N          0.000000000000     0.000000000000     0.594692438900    14.003074004780
           N          0.000000000000     0.000000000000    -0.594692438900    14.003074004780

  Charge       = 1
  Multiplicity = 2
  Basis Set: AUG-CC-PV(5+D)Z
    Blend: AUG-CC-PV(5+D)Z

    Orbital Energies (a.u.)
    -----------------------

    Alpha Occupied:

       1Ag   -16.189073     1B1u  -16.186707     2Ag    -1.903276
       2B1u   -1.232800     1B3u   -1.067217     3Ag    -1.040023
       1B2u   -1.012731

    Alpha Virtual:

       1B2g   -0.320252     1B3g   -0.278425     4Ag    -0.111450
       2B3u   -0.088488     3B1u   -0.084644     2B2u   -0.083398
       5Ag    -0.041678     2B2g   -0.029611     2B3g   -0.026909
       4B1u    0.032336     1B1g    0.040751     6Ag     0.040757
       7Ag     0.107168     3B3u    0.136537     5B1u    0.142187
       3B2u    0.146279     3B2g    0.156821     1Au     0.162089
       3B3g    0.162217     6B1u    0.162561     4B3u    0.164553
       4B2u    0.172176     8Ag     0.248576     7B1u    0.251401
       9Ag     0.362229     8B1u    0.375856     4B2g    0.378229
       4B3g    0.387137     5B3u    0.465917     5B2u    0.465922
       2B1g    0.501943    10Ag     0.502962     6B3u    0.587534
       6B2u    0.600493     9B1u    0.610600     2Au     0.610734
      10B1u    0.650927     5B2g    0.668945     5B3g    0.669009
      11Ag     0.676748     3B1g    0.679986     6B2g    0.682669
      12Ag     0.688254     6B3g    0.688510    11B1u    0.790710
      13Ag     0.877890     7B3u    0.884728     7B2u    0.901449
       8B3u    0.986041     8B2u    1.014081    12B1u    1.029490
       3Au     1.029510     7B2g    1.083528     7B3g    1.101216
      13B1u    1.158306    14B1u    1.497442     8B2g    1.535004
       8B3g    1.553773    14Ag     1.566894    15Ag     1.683774
       4B1g    1.691103    16Ag     1.691108     9B3u    1.749529
       9B2u    1.749541     5B1g    1.768470    17Ag     1.771484
      10B3u    1.867633    10B2u    1.897847    11B3u    2.016267
      11B2u    2.016703     9B2g    2.027233     9B3g    2.027237
      12B3u    2.040339    18Ag     2.041687     6B1g    2.042455
      12B2u    2.052892    15B1u    2.053346     4Au     2.053595
      16B1u    2.060456     5Au     2.072469    17B1u    2.074987
       6Au     2.081573    18B1u    2.083288    19Ag     2.153828
      10B2g    2.310205    10B3g    2.323017    20Ag     2.424790
      19B1u    2.472219    11B2g    2.489085    11B3g    2.511817
      12B2g    2.585650    12B3g    2.585792     7B1g    2.614265
      21Ag     2.615464    13B3u    3.059617    13B2u    3.087241
      20B1u    3.201140    13B2g    3.401350    13B3g    3.432530
      21B1u    3.481428     7Au     3.483380    14B3u    3.575317
      22B1u    3.587492    14B2u    3.608703    22Ag     3.702361
      23Ag     3.951010    15B3u    4.146285    15B2u    4.146285
       8B1g    4.232589    24Ag     4.232589    14B2g    4.473052
      14B3g    4.509434    15B2g    4.583646    15B3g    4.583646
      16B3u    4.659500    16B2u    4.660483    17B3u    4.685972
      17B2u    4.718609    25Ag     4.780258     9B1g    4.780349
      23B1u    4.861438     8Au     4.868231    24B1u    4.894360
      26Ag     5.113343    10B1g    5.113343    27Ag     5.174434
      25B1u    5.187982     9Au     5.187982    26B1u    5.250124
      18B3u    5.284099    18B2u    5.284135    16B2g    5.287147
      16B3g    5.288100    17B2g    5.306770    17B3g    5.324028
      28Ag     5.356046    11B1g    5.358916    10Au     5.404541
      27B1u    5.405610    29Ag     5.415397    19B3u    5.435658
      19B2u    5.435675    20B3u    5.462127    11Au     5.469909
      28B1u    5.469911    20B2u    5.484338    18B2g    5.570785
      18B3g    5.570797    21B3u    5.810118    21B2u    5.838909
      19B2g    5.895652    19B3g    5.921216    12B1g    6.085628
      30Ag     6.085820    31Ag     6.314058    29B1u    6.683511
      13B1g    6.707572    32Ag     6.708650    20B2g    6.776129
      20B3g    6.776141    12Au     6.846414    30B1u    6.846882
      31B1u    7.337647    21B2g    7.408318    21B3g    7.444252
      32B1u    7.781266    33Ag     8.013741    22B3u    8.273299
      22B2u    8.306820    13Au     8.492460    33B1u    8.493162
      22B2g    9.260520    22B3g    9.292605    34Ag     9.324936
      23B3u   11.446803    23B2u   11.446823    35Ag    11.652019
      14B1g   11.652221    36Ag    11.671649    15B1g   11.672870
      24B3u   11.798168    24B2u   11.810908    25B3u   11.810910
      34B1u   11.829003    25B2u   11.830269    37Ag    11.960284
      26B3u   11.985312    23B2g   12.005476    23B3g   12.005476
      26B2u   12.022711    35B1u   12.457487    14Au    12.457487
      24B2g   12.562982    24B3g   12.595949    25B2g   12.733108
      25B3g   12.758776    36B1u   12.903422    15Au    13.221544
      37B1u   13.222280    26B2g   13.313605    26B3g   13.313616
      38Ag    13.427027    27B3u   13.941989    27B2u   13.941997
      39Ag    14.030714    16B1g   14.064487    40Ag    14.064490
      28B3u   14.067189    28B2u   14.093552    38B1u   14.211277
      16Au    14.211277    29B3u   14.213928    29B2u   14.214110
      27B2g   14.233320    27B3g   14.233324    17B1g   14.254906
      41Ag    14.255779    28B2g   14.621564    28B3g   14.621567
      18B1g   14.659919    42Ag    14.660544    39B1u   15.001913
      17Au    15.003534    40B1u   15.031285    41B1u   15.585420
      29B2g   15.654123    29B3g   15.689945    42B1u   15.900017
      18Au    15.952263    43B1u   15.954025    30B3u   15.968564
      30B2u   16.001287    43Ag    16.973216    19B1g   17.010356
      44Ag    17.012974    19Au    18.178377    44B1u   18.178501
      30B2g   18.364143    30B3g   18.391424    31B3u   18.671556
      31B2u   18.701911    31B2g   19.356977    31B3g   19.389082
      45B1u   20.901454    45Ag    21.104202    46Ag    48.460438
      46B1u   54.124196

    Beta Occupied:

       1Ag   -16.175706     1B1u  -16.173823     2Ag    -1.802526
       2B1u   -1.186377     3Ag    -1.024097     1B2u   -0.991922

    Beta Virtual:

       1B3u   -0.482452     1B3g   -0.265759     1B2g   -0.164133
       4Ag    -0.108321     3B1u   -0.083644     2B2u   -0.082941
       2B3u   -0.080006     5Ag    -0.040586     2B3g   -0.026421
       2B2g   -0.022197     4B1u    0.034458     1B1g    0.047407
       6Ag     0.047504     7Ag     0.110812     5B1u    0.145602
       3B2u    0.147466     3B3u    0.155292     1Au     0.162783
       6B1u    0.163011     3B3g    0.163355     3B2g    0.170609
       4B2u    0.172904     4B3u    0.173722     8Ag     0.251626
       7B1u    0.261314     9Ag     0.371941     4B3g    0.388563
       8B1u    0.393003     4B2g    0.393418     5B2u    0.469252
       5B3u    0.469255     2B1g    0.531211    10Ag     0.531395
       6B2u    0.601265     6B3u    0.601535     9B1u    0.614906
       2Au     0.615205    10B1u    0.658028     5B2g    0.670104
       5B3g    0.670118    11Ag     0.680280     3B1g    0.682511
       6B2g    0.685642    12Ag     0.688005     6B3g    0.688406
      11B1u    0.791993    13Ag     0.885356     7B2u    0.903525
       7B3u    0.911550     8B2u    1.019957     8B3u    1.029055
      12B1u    1.039191     3Au     1.039333     7B3g    1.104289
       7B2g    1.113872    13B1u    1.164928    14B1u    1.501797
       8B2g    1.548306     8B3g    1.555535    14Ag     1.575304
       4B1g    1.696488    15Ag     1.696489    16Ag     1.700230
       9B2u    1.766656     9B3u    1.766661     5B1g    1.802092
      17Ag     1.802353    10B2u    1.902833    10B3u    1.910749
      11B3u    2.020186    11B2u    2.020391     9B2g    2.033755
       9B3g    2.033756    12B3u    2.044203    12B2u    2.052466
       6B1g    2.055578    18Ag     2.055672    15B1u    2.056866
       4Au     2.056942    16B1u    2.064264     5Au     2.077799
      17B1u    2.080312    18B1u    2.099888     6Au     2.099919
      19Ag     2.161760    10B2g    2.315407    10B3g    2.322852
      20Ag     2.431931    19B1u    2.478478    11B2g    2.507962
      11B3g    2.514683    12B2g    2.591529    12B3g    2.591550
       7B1g    2.623705    21Ag     2.624020    13B3u    3.089307
      13B2u    3.091341    20B1u    3.206677    13B2g    3.434994
      13B3g    3.437528    21B1u    3.499813     7Au     3.500789
      22B1u    3.596515    14B3u    3.609101    14B2u    3.613973
      22Ag     3.711130    23Ag     3.972017    15B3u    4.153002
      15B2u    4.153002     8B1g    4.241569    24Ag     4.241569
      14B2g    4.505678    14B3g    4.515291    15B2g    4.588760
      15B3g    4.588760    16B3u    4.679075    16B2u    4.679450
      17B3u    4.708459    17B2u    4.721978     9B1g    4.801710
      25Ag     4.801717    23B1u    4.875723     8Au     4.878901
      24B1u    4.897301    26Ag     5.124671    10B1g    5.124671
      27Ag     5.181234    25B1u    5.191546     9Au     5.191546
      26B1u    5.253205    18B3u    5.289047    18B2u    5.289060
      16B2g    5.293245    16B3g    5.293676    17B2g    5.311585
      17B3g    5.323693    28Ag     5.363536    11B1g    5.364716
      10Au     5.409563    27B1u    5.410087    29Ag     5.419345
      19B3u    5.452719    19B2u    5.452721    20B3u    5.470813
      11Au     5.481510    28B1u    5.481510    20B2u    5.484721
      18B2g    5.588100    18B3g    5.588103    21B3u    5.830039
      21B2u    5.841620    19B2g    5.903519    19B3g    5.922769
      30Ag     6.111351    12B1g    6.111403    31Ag     6.320955
      29B1u    6.694232    13B1g    6.717752    32Ag     6.718254
      20B2g    6.785805    20B3g    6.785807    30B1u    6.867985
      12Au     6.868086    31B1u    7.350791    21B2g    7.434282
      21B3g    7.448459    32B1u    7.787779    33Ag     8.021952
      22B3u    8.295787    22B2u    8.310635    13Au     8.507390
      33B1u    8.507623    22B2g    9.278408    22B3g    9.295550
      34Ag     9.336624    23B3u   11.457735    23B2u   11.457741
      35Ag    11.663615    14B1g   11.663685    36Ag    11.682006
      15B1g   11.682596    24B3u   11.818812    24B2u   11.822000
      25B3u   11.822002    25B2u   11.833571    34B1u   11.839704
      37Ag    11.965955    26B3u   12.009050    23B2g   12.016428
      23B3g   12.016428    26B2u   12.027063    35B1u   12.467376
      14Au    12.467376    24B2g   12.588107    24B3g   12.600661
      25B2g   12.741721    25B3g   12.760132    36B1u   12.908539
      15Au    13.226753    37B1u   13.227156    26B2g   13.321356
      26B3g   13.321361    38Ag    13.438365    27B3u   13.961447
      27B2u   13.961448    39Ag    14.036799    28B3u   14.078210
      16B1g   14.079995    40Ag    14.079996    28B2u   14.095556
      29B3u   14.225053    29B2u   14.225105    38B1u   14.226446
      16Au    14.226446    27B2g   14.250663    27B3g   14.250664
      17B1g   14.266980    41Ag    14.267318    28B2g   14.634934
      28B3g   14.634935    18B1g   14.670170    42Ag    14.670453
      39B1u   15.014648    17Au    15.015730    40B1u   15.037741
      41B1u   15.591242    29B2g   15.670424    29B3g   15.692910
      42B1u   15.908857    18Au    15.963511    43B1u   15.964197
      30B3u   15.985019    30B2u   16.004344    43Ag    16.981526
      19B1g   17.027778    44Ag    17.028168    19Au    18.193746
      44B1u   18.193788    30B2g   18.377673    30B3g   18.393581
      31B3u   18.687075    31B2u   18.704618    31B2g   19.370555
      31B3g   19.391756    45B1u   20.905565    45Ag    21.108257
      46Ag    48.465861    46B1u   54.129013

    Final Occupation by Irrep:
             Ag   B1g   B2g   B3g    Au   B1u   B2u   B3u
    DOCC [     3,    0,    0,    0,    0,    2,    1,    0 ]
    SOCC [     0,    0,    0,    0,    0,    0,    0,    1 ]

  Energy converged.

  @UHF Final Energy:  -108.42786226401540

   => Energetics <=

    Nuclear Repulsion Energy =             21.8009188656173407
    One-Electron Energy =                -184.4712839353777554
    Two-Electron Energy =                  54.2425028057450191
    Total Energy =                       -108.4278622640153884

  UHF NO Occupations:
  HONO-2 :    2B1u 1.9992866
  HONO-1 :    3 Ag 1.9991681
  HONO-0 :    1B3u 1.0000000
  LUNO+0 :    4 Ag 0.0008319
  LUNO+1 :    3B1u 0.0007134
  LUNO+2 :    2B2u 0.0000703
  LUNO+3 :    5 Ag 0.0000644

Properties will be evaluated at   0.000000,   0.000000,   0.000000 Bohr

Properties computed using the SCF density matrix

  Nuclear Dipole Moment: (a.u.)
     X:     0.0000      Y:     0.0000      Z:    -0.0000

  Electronic Dipole Moment: (a.u.)
     X:     0.0000      Y:     0.0000      Z:     0.0000

  Dipole Moment: (a.u.)
     X:     0.0000      Y:     0.0000      Z:    -0.0000     Total:     0.0000

  Dipole Moment: (Debye)
     X:     0.0000      Y:     0.0000      Z:    -0.0000     Total:     0.0000

*** tstop() called on l49 at Thu Jan 14 15:14:33 2021
Module time:
	user time   =     121.46 seconds =       2.02 minutes
	system time =       7.90 seconds =       0.13 minutes
	total time  =        162 seconds =       2.70 minutes
Total time:
	user time   =     121.46 seconds =       2.02 minutes
	system time =       7.90 seconds =       0.13 minutes
	total time  =        162 seconds =       2.70 minutes

*** tstart() called on l49
*** at Thu Jan 14 15:14:33 2021

	Wfn Parameters:
	--------------------
	Wavefunction         = CCSD
	Number of irreps     = 8
	Number of MOs        = 254
	Number of active MOs = 252
	AO-Basis             = NONE
	Semicanonical        = false
	Reference            = UHF
	Print Level          = 1

	IRREP	# MOs	# FZDC	# DOCC	# SOCC	# VIRT	# FZVR
	-----	-----	------	------	------	------	------
	 Ag	   46	    1	    2	    0	    43	    0
	 B1g	   19	    0	    0	    0	    19	    0
	 B2g	   31	    0	    0	    0	    31	    0
	 B3g	   31	    0	    0	    0	    31	    0
	 Au	   19	    0	    0	    0	    19	    0
	 B1u	   46	    1	    1	    0	    44	    0
	 B2u	   31	    0	    1	    0	    30	    0
	 B3u	   31	    0	    0	    1	    30	    0
	Transforming integrals...
	IWL integrals will be deleted.
	(OO|OO)...
	Presorting SO-basis two-electron integrals.
	Sorting File: SO Ints (nn|nn) nbuckets = 1
	Transforming the one-electron integrals and constructing Fock matrices
	Starting AA/AB first half-transformation.
	Sorting AA/AB half-transformed integrals.
	Starting BB first half-transformation.
	Sorting BB half-transformed integrals.
	First half integral transformation complete.
	Starting AA second half-transformation.
	Starting AB second half-transformation.
	Starting BB second half-transformation.
	Two-electron integral transformation complete.
	(OO|OV)...
	Starting AA second half-transformation.
	Starting AB second half-transformation.
	Starting BB second half-transformation.
	Two-electron integral transformation complete.
	(OO|VV)...
	Starting AA second half-transformation.
	Starting AB second half-transformation.
	Starting BB second half-transformation.
	Two-electron integral transformation complete.
	(OV|OO)...
	Starting AA/AB first half-transformation.
	Sorting AA/AB half-transformed integrals.
	Starting BB first half-transformation.
	Sorting BB half-transformed integrals.
	First half integral transformation complete.
	Starting AA second half-transformation.
	Starting AB second half-transformation.
	Starting BB second half-transformation.
	Two-electron integral transformation complete.
	(OV|OV)...
	Starting AA second half-transformation.
	Starting AB second half-transformation.
	Starting BB second half-transformation.
	Two-electron integral transformation complete.
	(OV|VV)...
	Starting AA second half-transformation.
	Starting AB second half-transformation.
	Starting BB second half-transformation.
	Two-electron integral transformation complete.
	(VV|OO)...
	Starting AA/AB first half-transformation.
	Sorting AA/AB half-transformed integrals.
	Starting BB first half-transformation.
	Sorting BB half-transformed integrals.
	First half integral transformation complete.
	Starting AA second half-transformation.
	Starting AB second half-transformation.
	Starting BB second half-transformation.
	Two-electron integral transformation complete.
	(VV|OV)...
	Starting AA second half-transformation.
	Starting AB second half-transformation.
	Starting BB second half-transformation.
	Two-electron integral transformation complete.
	(VV|VV)...
	Starting AA second half-transformation.
	Starting AB second half-transformation.
	Starting BB second half-transformation.
	Two-electron integral transformation complete.
	Frozen core energy     =   -100.14817891430114

	Size of irrep 0 of <AB|CD> integrals:     15.928 (MW) /    127.425 (MB)
	Size of irrep 1 of <AB|CD> integrals:     12.348 (MW) /     98.786 (MB)
	Size of irrep 2 of <AB|CD> integrals:     14.531 (MW) /    116.251 (MB)
	Size of irrep 3 of <AB|CD> integrals:     14.531 (MW) /    116.251 (MB)
	Size of irrep 4 of <AB|CD> integrals:     12.341 (MW) /     98.729 (MB)
	Size of irrep 5 of <AB|CD> integrals:     16.917 (MW) /    135.334 (MB)
	Size of irrep 6 of <AB|CD> integrals:     14.539 (MW) /    116.312 (MB)
	Size of irrep 7 of <AB|CD> integrals:     14.539 (MW) /    116.312 (MB)
	Total:                                   115.675 (MW) /    925.399 (MB)

	Size of irrep 0 of <ab|cd> integrals:     16.168 (MW) /    129.348 (MB)
	Size of irrep 1 of <ab|cd> integrals:     12.560 (MW) /    100.479 (MB)
	Size of irrep 2 of <ab|cd> integrals:     14.869 (MW) /    118.950 (MB)
	Size of irrep 3 of <ab|cd> integrals:     14.677 (MW) /    117.412 (MB)
	Size of irrep 4 of <ab|cd> integrals:     12.560 (MW) /    100.479 (MB)
	Size of irrep 5 of <ab|cd> integrals:     17.173 (MW) /    137.382 (MB)
	Size of irrep 6 of <ab|cd> integrals:     14.684 (MW) /    117.474 (MB)
	Size of irrep 7 of <ab|cd> integrals:     14.869 (MW) /    118.950 (MB)
	Total:                                   117.559 (MW) /    940.474 (MB)

	Size of irrep 0 of <Ab|Cd> integrals:     68.211 (MW) /    545.689 (MB)
	Size of irrep 1 of <Ab|Cd> integrals:     49.815 (MW) /    398.523 (MB)
	Size of irrep 2 of <Ab|Cd> integrals:     58.798 (MW) /    470.386 (MB)
	Size of irrep 3 of <Ab|Cd> integrals:     58.415 (MW) /    467.324 (MB)
	Size of irrep 4 of <Ab|Cd> integrals:     49.801 (MW) /    398.410 (MB)
	Size of irrep 5 of <Ab|Cd> integrals:     68.178 (MW) /    545.424 (MB)
	Size of irrep 6 of <Ab|Cd> integrals:     58.446 (MW) /    467.568 (MB)
	Size of irrep 7 of <Ab|Cd> integrals:     58.814 (MW) /    470.508 (MB)
	Total:                                   470.479 (MW) /   3763.832 (MB)

	Size of irrep 0 of <IA|BC> integrals:      1.564 (MW) /     12.508 (MB)
	Size of irrep 1 of <IA|BC> integrals:      0.822 (MW) /      6.578 (MB)
	Size of irrep 2 of <IA|BC> integrals:      1.182 (MW) /      9.454 (MB)
	Size of irrep 3 of <IA|BC> integrals:      1.182 (MW) /      9.454 (MB)
	Size of irrep 4 of <IA|BC> integrals:      0.836 (MW) /      6.689 (MB)
	Size of irrep 5 of <IA|BC> integrals:      1.588 (MW) /     12.701 (MB)
	Size of irrep 6 of <IA|BC> integrals:      1.167 (MW) /      9.334 (MB)
	Size of irrep 7 of <IA|BC> integrals:      1.167 (MW) /      9.334 (MB)
	Total:                                     9.506 (MW) /     76.052 (MB)

	Size of irrep 0 of <ia|bc> integrals:      1.326 (MW) /     10.611 (MB)
	Size of irrep 1 of <ia|bc> integrals:      0.624 (MW) /      4.990 (MB)
	Size of irrep 2 of <ia|bc> integrals:      0.864 (MW) /      6.910 (MB)
	Size of irrep 3 of <ia|bc> integrals:      1.042 (MW) /      8.336 (MB)
	Size of irrep 4 of <ia|bc> integrals:      0.624 (MW) /      4.990 (MB)
	Size of irrep 5 of <ia|bc> integrals:      1.343 (MW) /     10.741 (MB)
	Size of irrep 6 of <ia|bc> integrals:      1.027 (MW) /      8.216 (MB)
	Size of irrep 7 of <ia|bc> integrals:      0.864 (MW) /      6.910 (MB)
	Total:                                     7.713 (MW) /     61.704 (MB)

	Size of irrep 0 of <Ia|Bc> integrals:      1.577 (MW) /     12.620 (MB)
	Size of irrep 1 of <Ia|Bc> integrals:      0.833 (MW) /      6.663 (MB)
	Size of irrep 2 of <Ia|Bc> integrals:      1.196 (MW) /      9.570 (MB)
	Size of irrep 3 of <Ia|Bc> integrals:      1.185 (MW) /      9.477 (MB)
	Size of irrep 4 of <Ia|Bc> integrals:      0.840 (MW) /      6.718 (MB)
	Size of irrep 5 of <Ia|Bc> integrals:      1.594 (MW) /     12.749 (MB)
	Size of irrep 6 of <Ia|Bc> integrals:      1.170 (MW) /      9.357 (MB)
	Size of irrep 7 of <Ia|Bc> integrals:      1.189 (MW) /      9.510 (MB)
	Total:                                     9.583 (MW) /     76.664 (MB)

	Size of irrep 0 of <iA|bC> integrals:      1.321 (MW) /     10.572 (MB)
	Size of irrep 1 of <iA|bC> integrals:      0.614 (MW) /      4.912 (MB)
	Size of irrep 2 of <iA|bC> integrals:      0.851 (MW) /      6.809 (MB)
	Size of irrep 3 of <iA|bC> integrals:      1.039 (MW) /      8.316 (MB)
	Size of irrep 4 of <iA|bC> integrals:      0.621 (MW) /      4.968 (MB)
	Size of irrep 5 of <iA|bC> integrals:      1.338 (MW) /     10.701 (MB)
	Size of irrep 6 of <iA|bC> integrals:      1.024 (MW) /      8.195 (MB)

      * MP2 total energy                      = -108.774413945302740
      * CCSD total energy                     = -108.783702155437624
*** Psi4 exiting successfully. Buy a developer a beer!
