                               Psi4 1.4a3.dev88

  ==> Input File <==

--------------------------------------------------------------------------
# Any line starting with the # character is a comment line
memory 250000 mb
molecule molecule{
1 2
N          0.0000000000        0.0000000000        0.5946924389
N          0.0000000000        0.0000000000       -0.5946924389
}

set {
  reference uhf
  basis aug-cc-pV(t+d)Z
  scf_type OUT_OF_CORE
  freeze_core true
}

energy('ccsd(t)')
--------------------------------------------------------------------------

    Molecular point group: d2h

    Geometry (in Angstrom), charge = 1, multiplicity = 2:

       Center              X                  Y                   Z               Mass
    ------------   -----------------  -----------------  -----------------  -----------------
         N            0.000000000000     0.000000000000     0.594692438900    14.003074004430
         N            0.000000000000     0.000000000000    -0.594692438900    14.003074004430

  Charge       = 1
  Multiplicity = 2
  Basis Set: AUG-CC-PV(T+D)Z
    Blend: AUG-CC-PV(T+D)Z

    Orbital Energies [Eh]
    ---------------------

    Alpha Occupied:

       1Ag   -16.206332     1B1u  -16.203997     2Ag    -1.858121
       2B1u   -1.291540     3Ag    -1.131440     1B2u   -0.995133
       1B3u   -0.995133

    Alpha Virtual:

       1B2g   -0.288898     1B3g   -0.288898     4Ag    -0.100039
       3B1u   -0.082569     2B3u   -0.066641     2B2u   -0.066641
       5Ag    -0.024975     2B2g   -0.002913     2B3g   -0.002913
       4B1u    0.083797     1B1g    0.145860     6Ag     0.145860
       5B1u    0.209655     7Ag     0.233160     3B2u    0.302556
       3B3u    0.302556     3B2g    0.328849     3B3g    0.328849
       1Au     0.331187     6B1u    0.331187     7B1u    0.428796
       4B3u    0.430624     4B2u    0.430624     8Ag     0.451118
       8B1u    0.577610     4B2g    0.735105     4B3g    0.735105
       9Ag     0.876710     2B1g    1.001317    10Ag     1.001317
       5B2u    1.054804     5B3u    1.054804     6B2u    1.074318
       6B3u    1.074318     2Au     1.239685     9B1u    1.239685
      10B1u    1.274165    11Ag     1.305433     3B1g    1.341177
      12Ag     1.341177     5B3g    1.352269     5B2g    1.352269
       6B3g    1.385706     6B2g    1.385706    11B1u    1.651365
       7B2u    1.749173     7B3u    1.749173     3Au     1.900704
      12B1u    1.900704     7B3g    2.081419     7B2g    2.081419
      13B1u    2.173554    13Ag     2.402558     8B3u    2.882533
       8B2u    2.882533    14Ag     3.404830     8B2g    3.694652
       8B3g    3.694652     4B1g    4.030805    15Ag     4.030805
       9B2u    4.036981     9B3u    4.036981    16Ag     4.039486
      14B1u    4.226529    10B2u    4.308250    10B3u    4.308250
      15B1u    4.544200     9B3g    4.592399     9B2g    4.592399
      17Ag     4.603542     5B1g    4.603542    16B1u    4.708544
       4Au     4.708544    11B2u    5.008222    11B3u    5.008222
      10B3g    5.025967    10B2g    5.025967     5Au     5.147913
      17B1u    5.147913    18Ag     5.869160    11B3g    6.052393
      11B2g    6.052393    18B1u    6.071435    19Ag    10.170812
      19B1u   14.931045

    Beta Occupied:

       1Ag   -16.186746     1B1u  -16.185377     2Ag    -1.788994
       2B1u   -1.074146     1B2u   -0.980876     1B3u   -0.980876

    Beta Virtual:

       3Ag    -0.507178     1B3g   -0.261022     1B2g   -0.261022
       4Ag    -0.084844     3B1u   -0.080995     2B3u   -0.065880
       2B2u   -0.065880     5Ag    -0.022385     2B3g   -0.001680
       2B2g   -0.001680     4B1u    0.086336     1B1g    0.145498
       6Ag     0.145498     7Ag     0.244842     5B1u    0.250020
       3B2u    0.310211     3B3u    0.310211     3B3g    0.331474
       3B2g    0.331474     1Au     0.332060     6B1u    0.332060
       4B3u    0.435238     4B2u    0.435238     7B1u    0.444449
       8Ag     0.497752     8B1u    0.669809     4B3g    0.738293
       4B2g    0.738293     9Ag     0.893705     2B1g    0.999719
      10Ag     0.999719     5B2u    1.054144     5B3u    1.054144
       6B2u    1.119063     6B3u    1.119063     2Au     1.248445
       9B1u    1.248445    10B1u    1.284516    11Ag     1.341345
       3B1g    1.349563    12Ag     1.349563     5B3g    1.371190
       5B2g    1.371190     6B3g    1.386729     6B2g    1.386729
      11B1u    1.693163     7B2u    1.760319     7B3u    1.760319
       3Au     1.900538    12B1u    1.900538     7B3g    2.094643
       7B2g    2.094643    13B1u    2.193636    13Ag     2.456498
       8B2u    2.892170     8B3u    2.892170    14Ag     3.447065
       8B3g    3.715259     8B2g    3.715259     4B1g    4.044112
      15Ag     4.044112     9B2u    4.072862     9B3u    4.072862
      16Ag     4.106909    14B1u    4.279377    10B2u    4.310893
      10B3u    4.310893     9B3g    4.594819     9B2g    4.594819
      15B1u    4.596772    17Ag     4.617756     5B1g    4.617756
      16B1u    4.725638     4Au     4.725638    11B2u    5.056315
      11B3u    5.056315    10B3g    5.066127    10B2g    5.066127
       5Au     5.156951    17B1u    5.156951    18Ag     5.920265
      11B3g    6.076689    11B2g    6.076689    18B1u    6.117639
      19Ag    10.183411    19B1u   14.938258

    Final Occupation by Irrep:
             Ag   B1g   B2g   B3g    Au   B1u   B2u   B3u
    DOCC [     2,    0,    0,    0,    0,    2,    1,    1 ]
    SOCC [     1,    0,    0,    0,    0,    0,    0,    0 ]

  @UHF Final Energy:  -108.38371645351258

   => Energetics <=

    Nuclear Repulsion Energy =             21.8009189513086987
    One-Electron Energy =                -184.4905588866971016
    Two-Electron Energy =                  54.3059234818758370
    Total Energy =                       -108.3837164535125765

  UHF NO Occupations:
  HONO-2 :    2 Ag 1.9994083
  HONO-1 :    2B1u 1.9895075
  HONO-0 :    3 Ag 1.0000000
  LUNO+0 :    3B1u 0.0104925
  LUNO+1 :    4 Ag 0.0005917
  LUNO+2 :    2B3u 0.0001973
  LUNO+3 :    2B2u 0.0001973

Computation Completed

Properties will be evaluated at   0.000000,   0.000000,   0.000000 [a0]

Properties computed using the SCF density matrix

  Nuclear Dipole Moment: [e a0]
     X:     0.0000      Y:     0.0000      Z:     0.0000

  Electronic Dipole Moment: [e a0]
     X:     0.0000      Y:     0.0000      Z:     0.0000

  Dipole Moment: [e a0]
     X:     0.0000      Y:     0.0000      Z:     0.0000     Total:     0.0000

  Dipole Moment: [D]
     X:     0.0000      Y:     0.0000      Z:     0.0000     Total:     0.0000

*** tstop() called on n412-040.vsc4.prov at Tue Jan 26 18:19:48 2021
Module time:
	user time   =      22.12 seconds =       0.37 minutes
	system time =       1.14 seconds =       0.02 minutes
	total time  =          3 seconds =       0.05 minutes
Total time:
	user time   =      22.12 seconds =       0.37 minutes
	system time =       1.14 seconds =       0.02 minutes
	total time  =          3 seconds =       0.05 minutes

*** tstart() called on n412-040.vsc4.prov
*** at Tue Jan 26 18:19:48 2021

	Wfn Parameters:
	--------------------
	Wavefunction         = CCSD_T
	Number of irreps     = 8
	Number of MOs        = 92
	Number of active MOs = 90
	AO-Basis             = NONE
	Semicanonical        = false
	Reference            = UHF
	Print Level          = 1

	IRREP	# MOs	# FZDC	# DOCC	# SOCC	# VIRT	# FZVR
	-----	-----	------	------	------	------	------
	 Ag	   19	    1	    1	    1	    16	    0
	 B1g	   5	    0	    0	    0	    5	    0
	 B2g	   11	    0	    0	    0	    11	    0
	 B3g	   11	    0	    0	    0	    11	    0
	 Au	   5	    0	    0	    0	    5	    0
	 B1u	   19	    1	    1	    0	    17	    0
	 B2u	   11	    0	    1	    0	    10	    0
	 B3u	   11	    0	    1	    0	    10	    0
	Transforming integrals...
	IWL integrals will be deleted.
	(OO|OO)...
	Presorting SO-basis two-electron integrals.
	Sorting File: SO Ints (nn|nn) nbuckets = 1
	Constructing frozen core operators
	Starting AA/AB first half-transformation.
	Sorting AA/AB half-transformed integrals.
	Starting BB first half-transformation.
	Sorting BB half-transformed integrals.
	First half integral transformation complete.
	Starting AA second half-transformation.
	Starting AB second half-transformation.
	Starting BB second half-transformation.
	Two-electron integral transformation complete.
	(OO|OV)...
	Starting AA second half-transformation.
	Starting AB second half-transformation.
	Starting BB second half-transformation.
	Two-electron integral transformation complete.
	(OO|VV)...
	Starting AA second half-transformation.
	Starting AB second half-transformation.
	Starting BB second half-transformation.
	Two-electron integral transformation complete.
	(OV|OO)...
	Starting AA/AB first half-transformation.
	Sorting AA/AB half-transformed integrals.
	Starting BB first half-transformation.
	Sorting BB half-transformed integrals.
	First half integral transformation complete.
	Starting AA second half-transformation.
	Starting AB second half-transformation.
	Starting BB second half-transformation.
	Two-electron integral transformation complete.
	(OV|OV)...
	Starting AA second half-transformation.
	Starting AB second half-transformation.
	Starting BB second half-transformation.
	Two-electron integral transformation complete.
	(OV|VV)...
	Starting AA second half-transformation.
	Starting AB second half-transformation.
	Starting BB second half-transformation.
	Two-electron integral transformation complete.
	(VV|OO)...
	Starting AA/AB first half-transformation.
	Sorting AA/AB half-transformed integrals.
	Starting BB first half-transformation.
	Sorting BB half-transformed integrals.
	First half integral transformation complete.
	Starting AA second half-transformation.
	Starting AB second half-transformation.
	Starting BB second half-transformation.
	Two-electron integral transformation complete.
	(VV|OV)...
	Starting AA second half-transformation.
	Starting AB second half-transformation.
	Starting BB second half-transformation.
	Two-electron integral transformation complete.
	(VV|VV)...
	Starting AA second half-transformation.
	Starting AB second half-transformation.
	Starting BB second half-transformation.
	Two-electron integral transformation complete.
	Frozen core energy     =   -100.14493945432210

	Size of irrep 0 of <AB|CD> integrals:      0.227 (MW) /      1.813 (MB)
	Size of irrep 1 of <AB|CD> integrals:      0.149 (MW) /      1.192 (MB)
	Size of irrep 2 of <AB|CD> integrals:      0.203 (MW) /      1.627 (MB)
	Size of irrep 3 of <AB|CD> integrals:      0.203 (MW) /      1.627 (MB)
	Size of irrep 4 of <AB|CD> integrals:      0.148 (MW) /      1.186 (MB)
	Size of irrep 5 of <AB|CD> integrals:      0.267 (MW) /      2.138 (MB)
	Size of irrep 6 of <AB|CD> integrals:      0.204 (MW) /      1.634 (MB)
	Size of irrep 7 of <AB|CD> integrals:      0.204 (MW) /      1.634 (MB)
	Total:                                     1.606 (MW) /     12.852 (MB)

	Size of irrep 0 of <ab|cd> integrals:      0.242 (MW) /      1.937 (MB)
	Size of irrep 1 of <ab|cd> integrals:      0.153 (MW) /      1.223 (MB)
	Size of irrep 2 of <ab|cd> integrals:      0.213 (MW) /      1.708 (MB)
	Size of irrep 3 of <ab|cd> integrals:      0.213 (MW) /      1.708 (MB)
	Size of irrep 4 of <ab|cd> integrals:      0.152 (MW) /      1.217 (MB)
	Size of irrep 5 of <ab|cd> integrals:      0.285 (MW) /      2.281 (MB)
	Size of irrep 6 of <ab|cd> integrals:      0.213 (MW) /      1.708 (MB)
	Size of irrep 7 of <ab|cd> integrals:      0.213 (MW) /      1.708 (MB)
	Total:                                     1.686 (MW) /     13.488 (MB)

	Size of irrep 0 of <Ab|Cd> integrals:      1.109 (MW) /      8.870 (MB)
	Size of irrep 1 of <Ab|Cd> integrals:      0.604 (MW) /      4.830 (MB)
	Size of irrep 2 of <Ab|Cd> integrals:      0.834 (MW) /      6.669 (MB)
	Size of irrep 3 of <Ab|Cd> integrals:      0.834 (MW) /      6.669 (MB)
	Size of irrep 4 of <Ab|Cd> integrals:      0.601 (MW) /      4.805 (MB)
	Size of irrep 5 of <Ab|Cd> integrals:      1.105 (MW) /      8.837 (MB)
	Size of irrep 6 of <Ab|Cd> integrals:      0.835 (MW) /      6.683 (MB)
	Size of irrep 7 of <Ab|Cd> integrals:      0.835 (MW) /      6.683 (MB)
	Total:                                     6.756 (MW) /     54.046 (MB)

	Size of irrep 0 of <IA|BC> integrals:      0.072 (MW) /      0.572 (MB)
	Size of irrep 1 of <IA|BC> integrals:      0.027 (MW) /      0.216 (MB)
	Size of irrep 2 of <IA|BC> integrals:      0.049 (MW) /      0.390 (MB)
	Size of irrep 3 of <IA|BC> integrals:      0.049 (MW) /      0.390 (MB)
	Size of irrep 4 of <IA|BC> integrals:      0.028 (MW) /      0.228 (MB)
	Size of irrep 5 of <IA|BC> integrals:      0.074 (MW) /      0.596 (MB)
	Size of irrep 6 of <IA|BC> integrals:      0.047 (MW) /      0.376 (MB)
	Size of irrep 7 of <IA|BC> integrals:      0.047 (MW) /      0.376 (MB)
	Total:                                     0.393 (MW) /      3.144 (MB)

	Size of irrep 0 of <ia|bc> integrals:      0.058 (MW) /      0.462 (MB)
	Size of irrep 1 of <ia|bc> integrals:      0.023 (MW) /      0.188 (MB)
	Size of irrep 2 of <ia|bc> integrals:      0.040 (MW) /      0.318 (MB)
	Size of irrep 3 of <ia|bc> integrals:      0.040 (MW) /      0.318 (MB)
	Size of irrep 4 of <ia|bc> integrals:      0.025 (MW) /      0.200 (MB)
	Size of irrep 5 of <ia|bc> integrals:      0.060 (MW) /      0.478 (MB)
	Size of irrep 6 of <ia|bc> integrals:      0.040 (MW) /      0.318 (MB)
	Size of irrep 7 of <ia|bc> integrals:      0.040 (MW) /      0.318 (MB)
	Total:                                     0.325 (MW) /      2.599 (MB)

	Size of irrep 0 of <Ia|Bc> integrals:      0.075 (MW) /      0.598 (MB)
	Size of irrep 1 of <Ia|Bc> integrals:      0.027 (MW) /      0.218 (MB)
	Size of irrep 2 of <Ia|Bc> integrals:      0.049 (MW) /      0.394 (MB)
	Size of irrep 3 of <Ia|Bc> integrals:      0.049 (MW) /      0.394 (MB)
	Size of irrep 4 of <Ia|Bc> integrals:      0.029 (MW) /      0.229 (MB)
	Size of irrep 5 of <Ia|Bc> integrals:      0.077 (MW) /      0.614 (MB)
	Size of irrep 6 of <Ia|Bc> integrals:      0.048 (MW) /      0.388 (MB)
	Size of irrep 7 of <Ia|Bc> integrals:      0.048 (MW) /      0.388 (MB)
	Total:                                     0.403 (MW) /      3.223 (MB)

	Size of irrep 0 of <iA|bC> integrals:      0.056 (MW) /      0.446 (MB)
	Size of irrep 1 of <iA|bC> integrals:      0.023 (MW) /      0.186 (MB)
	Size of irrep 2 of <iA|bC> integrals:      0.039 (MW) /      0.314 (MB)
	Size of irrep 3 of <iA|bC> integrals:      0.039 (MW) /      0.314 (MB)
	Size of irrep 4 of <iA|bC> integrals:      0.025 (MW) /      0.198 (MB)
	Size of irrep 5 of <iA|bC> integrals:      0.058 (MW) /      0.462 (MB)
	Size of irrep 6 of <iA|bC> integrals:      0.038 (MW) /      0.307 (MB)
	Size of irrep 7 of <iA|bC> integrals:      0.038 (MW) /      0.307 (MB)
	Total:                                     0.317 (MW) /      2.536 (MB)

	Size of irrep 0 of tIjAb amplitudes:       0.005 (MW) /      0.042 (MB)
	Size of irrep 1 of tIjAb amplitudes:       0.002 (MW) /      0.012 (MB)
	Size of irrep 2 of tIjAb amplitudes:       0.002 (MW) /      0.015 (MB)
	Size of irrep 3 of tIjAb amplitudes:       0.002 (MW) /      0.015 (MB)
	Size of irrep 4 of tIjAb amplitudes:       0.000 (MW) /      0.000 (MB)
	Size of irrep 5 of tIjAb amplitudes:       0.003 (MW) /      0.025 (MB)
	Size of irrep 6 of tIjAb amplitudes:       0.003 (MW) /      0.022 (MB)
	Size of irrep 7 of tIjAb amplitudes:       0.003 (MW) /      0.022 (MB)
	Total:                                     0.019 (MW) /      0.153 (MB)

	Nuclear Rep. energy          =     21.80091895130870
	SCF energy                   =   -108.38371645351258
	One-electron energy          =    -48.98313253868469
	Two-electron (AA) energy     =      4.77245091093494
	Two-electron (BB) energy     =      2.90841609981055
	Two-electron (AB) energy     =     11.26256957743999
	Two-electron energy          =     18.94343658818548
	Reference energy             =   -108.38371645351260

*** tstop() called on n412-040.vsc4.prov at Tue Jan 26 18:19:55 2021
Module time:
	user time   =       1.08 seconds =       0.02 minutes
	system time =       0.99 seconds =       0.02 minutes
	total time  =          7 seconds =       0.12 minutes
Total time:
	user time   =      23.20 seconds =       0.39 minutes
	system time =       2.13 seconds =       0.04 minutes
	total time  =         10 seconds =       0.17 minutes
            **************************
            *                        *
            *        CCENERGY        *
            *                        *
            **************************

    Nuclear Rep. energy (wfn)     =   21.800918951308699
    SCF energy          (wfn)     = -108.383716453512577
    Reference energy    (file100) = -108.383716453512605

    Input parameters:
    -----------------
    Wave function   =     CCSD_T
    Reference wfn   =     UHF
    Brueckner       =     No
    Memory (Mbytes) =     250000.0
    Maxiter         =     50
    R_Convergence   =     1.0e-07
    E_Convergence   =     1.0e-06
    Restart         =     Yes
    DIIS            =     Yes
    AO Basis        =     NONE
    ABCD            =     NEW
    Cache Level     =     2
    Cache Type      =     LRU
    Print Level     =     1
    Num. of threads =     48
    # Amps to Print =     10
    Print MP2 Amps? =     No
    Analyze T2 Amps =     No
    Print Pair Ener =     No
    Local CC        =     No
    SCS-MP2         =     False
    SCSN-MP2        =     False
    SCS-CCSD        =     False

MP2 correlation energy -0.4125687541547018
                Solving CC Amplitude Equations
                ------------------------------
  Iter             Energy              RMS        T1Diag      D1Diag    New D1Diag    D2Diag
  ----     ---------------------    ---------   ----------  ----------  ----------   --------
     0        -0.412568754154702    0.000e+00    0.000000    0.000000    0.000000    0.000000
     1        -0.355294314631656    1.522e-01    0.031439    0.000000    0.000000    0.000000
     2        -0.385819257247295    6.219e-02    0.028269    0.000000    0.000000    0.000000
     3        -0.390775217744549    2.109e-02    0.034366    0.000000    0.000000    0.000000
     4        -0.391950786035074    6.087e-03    0.035372    0.000000    0.000000    0.000000
     5        -0.391924020511013    1.829e-03    0.035541    0.000000    0.000000    0.000000
     6        -0.391858169940673    5.251e-04    0.035500    0.000000    0.000000    0.000000
     7        -0.391903662558934    1.606e-04    0.035504    0.000000    0.000000    0.000000
     8        -0.391894921252741    5.860e-05    0.035501    0.000000    0.000000    0.000000
     9        -0.391894515012615    2.395e-05    0.035503    0.000000    0.000000    0.000000
    10        -0.391894965112819    8.724e-06    0.035503    0.000000    0.000000    0.000000
    11        -0.391894790587822    3.303e-06    0.035503    0.000000    0.000000    0.000000
    12        -0.391894844877237    1.104e-06    0.035503    0.000000    0.000000    0.000000
    13        -0.391894856125457    3.680e-07    0.035503    0.000000    0.000000    0.000000
    14        -0.391894864562253    1.183e-07    0.035503    0.000000    0.000000    0.000000
    15        -0.391894866844688    3.834e-08    0.035503    0.000000    0.000000    0.000000

    Iterations converged.

    Largest TIA Amplitudes:
              4  77         0.0222114026
              3  67         0.0222114025
              2  50         0.0212204513
              4  79         0.0149309505
              3  69         0.0149309505
              2  52        -0.0126552752
              3  65         0.0121738109
              4  75         0.0121738108
              2  53        -0.0120751581
              1   0        -0.0107945587

    Largest Tia Amplitudes:
              0   0         0.0604623589
              1  54         0.0350393053
              1  51        -0.0263115398
              3  78         0.0226515669

      * MP2 total energy                      = -108.796285207667310
      * CCSD total energy                     = -108.775611320357299
      * CCSD(T) total energy                     = -108.802753613465484
*** Psi4 exiting successfully. Buy a developer a beer!
