                               Psi4 1.4a3.dev88

  ==> Input File <==

--------------------------------------------------------------------------
# Any line starting with the # character is a comment line
memory 250000 mb
molecule molecule{
1 2
N          0.0000000000        0.0000000000        0.5946924389
N          0.0000000000        0.0000000000       -0.5946924389
}

set {
  reference uhf
  basis aug-cc-pV(Q+d)Z
  scf_type OUT_OF_CORE
  freeze_core true
}

energy('ccsd(t)')
--------------------------------------------------------------------------

    Molecular point group: d2h

    Geometry (in Angstrom), charge = 1, multiplicity = 2:

       Center              X                  Y                   Z               Mass
    ------------   -----------------  -----------------  -----------------  -----------------
         N            0.000000000000     0.000000000000     0.594692438900    14.003074004430
         N            0.000000000000     0.000000000000    -0.594692438900    14.003074004430

  Charge       = 1
  Multiplicity = 2
  Basis Set: AUG-CC-PV(Q+D)Z
    Blend: AUG-CC-PV(Q+D)Z

    Orbital Energies [Eh]
    ---------------------

    Alpha Occupied:

       1Ag   -16.204678     1B1u  -16.202343     2Ag    -1.857256
       2B1u   -1.291131     3Ag    -1.131718     1B3u   -0.994978
       1B2u   -0.994978

    Alpha Virtual:

       1B2g   -0.288639     1B3g   -0.288639     4Ag    -0.105083
       3B1u   -0.086002     2B3u   -0.073670     2B2u   -0.073670
       5Ag    -0.034558     2B2g   -0.017724     2B3g   -0.017724
       4B1u    0.058773     6Ag     0.078151     1B1g    0.078151
       7Ag     0.148451     5B1u    0.163228     3B3u    0.201714
       3B2u    0.201714     3B2g    0.203989     3B3g    0.203989
       1Au     0.210894     6B1u    0.210894     4B3u    0.290722
       4B2u    0.290722     7B1u    0.323219     8Ag     0.348557
       8B1u    0.458709     9Ag     0.510926     4B2g    0.572009
       4B3g    0.572009     5B3u    0.662752     5B2u    0.662752
      10Ag     0.672834     2B1g    0.672834     6B3u    0.732370
       6B2u    0.732370     2Au     0.791004     9B1u    0.791004
      10B1u    0.840277    11Ag     0.863269     5B2g    0.884946
       5B3g    0.884946     3B1g    0.897674    12Ag     0.897674
       6B2g    0.903520     6B3g    0.903520    11B1u    1.099313
       7B3u    1.203245     7B2u    1.203245    13Ag     1.298358
      12B1u    1.343558     3Au     1.343558    13B1u    1.407850
       7B2g    1.438110     7B3g    1.438110     8B3u    1.751355
       8B2u    1.751355    14Ag     2.262896     4B1g    2.331508
      15Ag     2.331508    16Ag     2.388445     9B3u    2.437327
       9B2u    2.437327     5B1g    2.466879    17Ag     2.466879
       8B2g    2.471987     8B3g    2.471987    14B1u    2.557973
      10B3u    2.572213    10B2u    2.572213     4Au     2.718190
      15B1u    2.718190    16B1u    2.736123     5Au     2.736123
      17B1u    2.743270    11B3u    2.748870    11B2u    2.748870
      12B3u    2.764305    12B2u    2.764305     6B1g    2.791340
      18Ag     2.791340     9B3g    2.802976     9B2g    2.802976
      10B2g    2.960612    10B3g    2.960612    19Ag     3.024020
      18B1u    3.059301     6Au     3.059301    19B1u    3.074099
      20Ag     3.094222    11B2g    3.147377    11B3g    3.147377
       7B1g    3.351311    21Ag     3.351311    12B2g    3.430857
      12B3g    3.430857    13B3u    4.295633    13B2u    4.295633
      20B1u    4.537837     7Au     4.561835    21B1u    4.561835
      22Ag     4.734335    13B2g    5.170764    13B3g    5.170764
      22B1u    5.382655     8B1g    7.333412    23Ag     7.333412
      14B3u    7.421583    14B2u    7.421583    15B3u    7.506582
      15B2u    7.506582    24Ag     7.596927     9B1g    7.672335
      25Ag     7.672335    23B1u    7.904298     8Au     7.904298
      16B3u    7.970321    16B2u    7.970321    14B2g    8.007762
      14B3g    8.007762    26Ag     8.333221    24B1u    8.356595
      15B3g    8.364231    15B2g    8.364231    16B2g    8.399741
      16B3g    8.399741     9Au     8.512086    25B1u    8.512086
      17B2u    8.626103    17B3u    8.626103    27Ag     8.791571
      10B1g    8.791571    17B3g    8.808621    17B2g    8.808621
      26B1u    8.824890    28Ag     9.060195    11B1g    9.060195
      29Ag     9.113679    18B3u    9.249120    18B2u    9.249120
      27B1u    9.627896    10Au     9.627896    28B1u    9.717650
      11Au     9.717650    19B3u    9.851751    19B2u    9.851751
      18B2g   10.326797    18B3g   10.326797    29B1u   10.495424
      30Ag    11.822916    19B2g   12.075074    19B3g   12.075074
      30B1u   13.318749    31B1u   31.447262    31Ag    32.374886

    Beta Occupied:

       1Ag   -16.185138     1B1u  -16.183769     2Ag    -1.787386
       2B1u   -1.073532     1B3u   -0.980832     1B2u   -0.980832

    Beta Virtual:

       3Ag    -0.506508     1B2g   -0.260807     1B3g   -0.260807
       4Ag    -0.091202     3B1u   -0.084562     2B3u   -0.073017
       2B2u   -0.073017     5Ag    -0.032662     2B2g   -0.016826
       2B3g   -0.016826     4B1u    0.060956     6Ag     0.077969
       1B1g    0.077969     7Ag     0.156800     5B1u    0.180765
       3B3u    0.205039     3B2u    0.205039     3B2g    0.205740
       3B3g    0.205740     1Au     0.211264     6B1u    0.211264
       4B3u    0.293913     4B2u    0.293913     7B1u    0.345121
       8Ag     0.383949     9Ag     0.524427     8B1u    0.547576
       4B2g    0.574658     4B3g    0.574658     5B2u    0.662381
       5B3u    0.662381    10Ag     0.671205     2B1g    0.671205
       6B3u    0.756590     6B2u    0.756590     2Au     0.794920
       9B1u    0.794920    10B1u    0.844080    11Ag     0.872950
       5B2g    0.891936     5B3g    0.891936     3B1g    0.901318
      12Ag     0.901318     6B2g    0.903857     6B3g    0.903857
      11B1u    1.119317     7B3u    1.218812     7B2u    1.218812
      13Ag     1.336344    12B1u    1.344093     3Au     1.344093
      13B1u    1.437444     7B2g    1.446949     7B3g    1.446949
       8B3u    1.759887     8B2u    1.759887    14Ag     2.277602
       4B1g    2.330984    15Ag     2.330984     9B3u    2.435429
       9B2u    2.435429    16Ag     2.462199     5B1g    2.467949
      17Ag     2.467949     8B2g    2.491872     8B3g    2.491872
      14B1u    2.601364    10B3u    2.610443    10B2u    2.610443
       4Au     2.731028    15B1u    2.731028    16B1u    2.736500
       5Au     2.736500    11B3u    2.753721    11B2u    2.753721
      17B1u    2.774236    12B3u    2.783482    12B2u    2.783482
       9B3g    2.808135     9B2g    2.808135     6B1g    2.810404
      18Ag     2.810404    10B2g    2.976970    10B3g    2.976970
      18B1u    3.064761     6Au     3.064761    19Ag     3.066077
      19B1u    3.099544    20Ag     3.109875    11B2g    3.163121
      11B3g    3.163121     7B1g    3.355861    21Ag     3.355861
      12B3g    3.430240    12B2g    3.430240    13B3u    4.316943
      13B2u    4.316943    20B1u    4.544945    21B1u    4.564729
       7Au     4.564729    22Ag     4.758426    13B2g    5.194137
      13B3g    5.194137    22B1u    5.426173     8B1g    7.347415
      23Ag     7.347415    14B2u    7.430166    14B3u    7.430166
      15B3u    7.529598    15B2u    7.529598    24Ag     7.629231
       9B1g    7.673698    25Ag     7.673698     8Au     7.905497
      23B1u    7.905497    16B3u    7.981291    16B2u    7.981291
      14B2g    8.046573    14B3g    8.046573    26Ag     8.375514
      15B3g    8.376194    15B2g    8.376194    24B1u    8.382999
      16B2g    8.405588    16B3g    8.405588     9Au     8.538818
      25B1u    8.538818    17B2u    8.630923    17B3u    8.630923
      17B3g    8.809528    17B2g    8.809528    10B1g    8.815343
      27Ag     8.815343    26B1u    8.867274    28Ag     9.067386
      11B1g    9.067386    29Ag     9.162387    18B3u    9.290517
      18B2u    9.290517    27B1u    9.632025    10Au     9.632025
      28B1u    9.729983    11Au     9.729983    19B3u    9.876069
      19B2u    9.876069    18B2g   10.348155    18B3g   10.348155
      29B1u   10.527385    30Ag    11.864961    19B2g   12.099407
      19B3g   12.099407    30B1u   13.355831    31B1u   31.456578
      31Ag    32.381465

    Final Occupation by Irrep:
             Ag   B1g   B2g   B3g    Au   B1u   B2u   B3u
    DOCC [     2,    0,    0,    0,    0,    2,    1,    1 ]
    SOCC [     1,    0,    0,    0,    0,    0,    0,    0 ]

  @UHF Final Energy:  -108.39043691621370

   => Energetics <=

    Nuclear Repulsion Energy =             21.8009189513086987
    One-Electron Energy =                -184.5141412391917584
    Two-Electron Energy =                  54.3227853716693687
    Total Energy =                       -108.3904369162137016

  UHF NO Occupations:
  HONO-2 :    2 Ag 1.9993896
  HONO-1 :    2B1u 1.9894800
  HONO-0 :    3 Ag 1.0000000
  LUNO+0 :    3B1u 0.0105200
  LUNO+1 :    4 Ag 0.0006104
  LUNO+2 :    2B3u 0.0001983
  LUNO+3 :    2B2u 0.0001983

Computation Completed

Properties will be evaluated at   0.000000,   0.000000,   0.000000 [a0]

Properties computed using the SCF density matrix

  Nuclear Dipole Moment: [e a0]
     X:     0.0000      Y:     0.0000      Z:     0.0000

  Electronic Dipole Moment: [e a0]
     X:     0.0000      Y:     0.0000      Z:     0.0000

  Dipole Moment: [e a0]
     X:     0.0000      Y:     0.0000      Z:     0.0000     Total:     0.0000

  Dipole Moment: [D]
     X:     0.0000      Y:     0.0000      Z:     0.0000     Total:     0.0000

*** tstop() called on l43 at Wed Jan 20 21:05:54 2021
Module time:
	user time   =      15.67 seconds =       0.26 minutes
	system time =       3.21 seconds =       0.05 minutes
	total time  =         14 seconds =       0.23 minutes
Total time:
	user time   =      15.67 seconds =       0.26 minutes
	system time =       3.21 seconds =       0.05 minutes
	total time  =         14 seconds =       0.23 minutes

*** tstart() called on l43
*** at Wed Jan 20 21:05:54 2021

	Wfn Parameters:
	--------------------
	Wavefunction         = CCSD_T
	Number of irreps     = 8
	Number of MOs        = 160
	Number of active MOs = 158
	AO-Basis             = NONE
	Semicanonical        = false
	Reference            = UHF
	Print Level          = 1

	IRREP	# MOs	# FZDC	# DOCC	# SOCC	# VIRT	# FZVR
	-----	-----	------	------	------	------	------
	 Ag	   31	    1	    1	    1	    28	    0
	 B1g	   11	    0	    0	    0	    11	    0
	 B2g	   19	    0	    0	    0	    19	    0
	 B3g	   19	    0	    0	    0	    19	    0
	 Au	   11	    0	    0	    0	    11	    0
	 B1u	   31	    1	    1	    0	    29	    0
	 B2u	   19	    0	    1	    0	    18	    0
	 B3u	   19	    0	    1	    0	    18	    0
	Transforming integrals...
	IWL integrals will be deleted.
	(OO|OO)...
	Presorting SO-basis two-electron integrals.
	Sorting File: SO Ints (nn|nn) nbuckets = 1
	Constructing frozen core operators
	Starting AA/AB first half-transformation.
	Sorting AA/AB half-transformed integrals.
	Starting BB first half-transformation.
	Sorting BB half-transformed integrals.
	First half integral transformation complete.
	Starting AA second half-transformation.
	Starting AB second half-transformation.
	Starting BB second half-transformation.
	Two-electron integral transformation complete.
	(OO|OV)...
	Starting AA second half-transformation.
	Starting AB second half-transformation.
	Starting BB second half-transformation.
	Two-electron integral transformation complete.
	(OO|VV)...
	Starting AA second half-transformation.
	Starting AB second half-transformation.
	Starting BB second half-transformation.
	Two-electron integral transformation complete.
	(OV|OO)...
	Starting AA/AB first half-transformation.
	Sorting AA/AB half-transformed integrals.
	Starting BB first half-transformation.
	Sorting BB half-transformed integrals.
	First half integral transformation complete.
	Starting AA second half-transformation.
	Starting AB second half-transformation.
	Starting BB second half-transformation.
	Two-electron integral transformation complete.
	(OV|OV)...
	Starting AA second half-transformation.
	Starting AB second half-transformation.
	Starting BB second half-transformation.
	Two-electron integral transformation complete.
	(OV|VV)...
	Starting AA second half-transformation.
	Starting AB second half-transformation.
	Starting BB second half-transformation.
	Two-electron integral transformation complete.
	(VV|OO)...
	Starting AA/AB first half-transformation.
	Sorting AA/AB half-transformed integrals.
	Starting BB first half-transformation.
	Sorting BB half-transformed integrals.
	First half integral transformation complete.
	Starting AA second half-transformation.
	Starting AB second half-transformation.
	Starting BB second half-transformation.
	Two-electron integral transformation complete.
	(VV|OV)...
	Starting AA second half-transformation.
	Starting AB second half-transformation.
	Starting BB second half-transformation.
	Two-electron integral transformation complete.
	(VV|VV)...
	Starting AA second half-transformation.
	Starting AB second half-transformation.
	Starting BB second half-transformation.
	Two-electron integral transformation complete.
	Frozen core energy     =   -100.14689013563758

	Size of irrep 0 of <AB|CD> integrals:      2.378 (MW) /     19.022 (MB)
	Size of irrep 1 of <AB|CD> integrals:      1.721 (MW) /     13.771 (MB)
	Size of irrep 2 of <AB|CD> integrals:      2.135 (MW) /     17.076 (MB)
	Size of irrep 3 of <AB|CD> integrals:      2.135 (MW) /     17.076 (MB)
	Size of irrep 4 of <AB|CD> integrals:      1.719 (MW) /     13.750 (MB)
	Size of irrep 5 of <AB|CD> integrals:      2.615 (MW) /     20.918 (MB)
	Size of irrep 6 of <AB|CD> integrals:      2.137 (MW) /     17.100 (MB)
	Size of irrep 7 of <AB|CD> integrals:      2.137 (MW) /     17.100 (MB)
	Total:                                    16.976 (MW) /    135.812 (MB)

	Size of irrep 0 of <ab|cd> integrals:      2.465 (MW) /     19.719 (MB)
	Size of irrep 1 of <ab|cd> integrals:      1.750 (MW) /     14.003 (MB)
	Size of irrep 2 of <ab|cd> integrals:      2.190 (MW) /     17.523 (MB)
	Size of irrep 3 of <ab|cd> integrals:      2.190 (MW) /     17.523 (MB)
	Size of irrep 4 of <ab|cd> integrals:      1.748 (MW) /     13.981 (MB)
	Size of irrep 5 of <ab|cd> integrals:      2.709 (MW) /     21.675 (MB)
	Size of irrep 6 of <ab|cd> integrals:      2.190 (MW) /     17.523 (MB)
	Size of irrep 7 of <ab|cd> integrals:      2.190 (MW) /     17.523 (MB)
	Total:                                    17.434 (MW) /    139.471 (MB)

	Size of irrep 0 of <Ab|Cd> integrals:     10.660 (MW) /     85.282 (MB)
	Size of irrep 1 of <Ab|Cd> integrals:      6.943 (MW) /     55.546 (MB)
	Size of irrep 2 of <Ab|Cd> integrals:      8.649 (MW) /     69.196 (MB)
	Size of irrep 3 of <Ab|Cd> integrals:      8.649 (MW) /     69.196 (MB)
	Size of irrep 4 of <Ab|Cd> integrals:      6.933 (MW) /     55.462 (MB)
	Size of irrep 5 of <Ab|Cd> integrals:     10.647 (MW) /     85.177 (MB)
	Size of irrep 6 of <Ab|Cd> integrals:      8.655 (MW) /     69.243 (MB)
	Size of irrep 7 of <Ab|Cd> integrals:      8.655 (MW) /     69.243 (MB)
	Total:                                    69.793 (MW) /    558.344 (MB)

	Size of irrep 0 of <IA|BC> integrals:      0.392 (MW) /      3.133 (MB)
	Size of irrep 1 of <IA|BC> integrals:      0.181 (MW) /      1.448 (MB)
	Size of irrep 2 of <IA|BC> integrals:      0.281 (MW) /      2.244 (MB)
	Size of irrep 3 of <IA|BC> integrals:      0.281 (MW) /      2.244 (MB)
	Size of irrep 4 of <IA|BC> integrals:      0.186 (MW) /      1.489 (MB)
	Size of irrep 5 of <IA|BC> integrals:      0.401 (MW) /      3.208 (MB)
	Size of irrep 6 of <IA|BC> integrals:      0.275 (MW) /      2.199 (MB)
	Size of irrep 7 of <IA|BC> integrals:      0.275 (MW) /      2.199 (MB)
	Total:                                     2.271 (MW) /     18.165 (MB)

	Size of irrep 0 of <ia|bc> integrals:      0.310 (MW) /      2.477 (MB)
	Size of irrep 1 of <ia|bc> integrals:      0.153 (MW) /      1.228 (MB)
	Size of irrep 2 of <ia|bc> integrals:      0.228 (MW) /      1.823 (MB)
	Size of irrep 3 of <ia|bc> integrals:      0.228 (MW) /      1.823 (MB)
	Size of irrep 4 of <ia|bc> integrals:      0.159 (MW) /      1.269 (MB)
	Size of irrep 5 of <ia|bc> integrals:      0.316 (MW) /      2.528 (MB)
	Size of irrep 6 of <ia|bc> integrals:      0.228 (MW) /      1.823 (MB)
	Size of irrep 7 of <ia|bc> integrals:      0.228 (MW) /      1.823 (MB)
	Total:                                     1.849 (MW) /     14.796 (MB)

	Size of irrep 0 of <Ia|Bc> integrals:      0.402 (MW) /      3.213 (MB)
	Size of irrep 1 of <Ia|Bc> integrals:      0.182 (MW) /      1.455 (MB)
	Size of irrep 2 of <Ia|Bc> integrals:      0.282 (MW) /      2.259 (MB)
	Size of irrep 3 of <Ia|Bc> integrals:      0.282 (MW) /      2.259 (MB)
	Size of irrep 4 of <Ia|Bc> integrals:      0.187 (MW) /      1.496 (MB)
	Size of irrep 5 of <Ia|Bc> integrals:      0.408 (MW) /      3.263 (MB)
	Size of irrep 6 of <Ia|Bc> integrals:      0.279 (MW) /      2.236 (MB)
	Size of irrep 7 of <Ia|Bc> integrals:      0.279 (MW) /      2.236 (MB)
	Total:                                     2.302 (MW) /     18.415 (MB)

	Size of irrep 0 of <iA|bC> integrals:      0.304 (MW) /      2.429 (MB)
	Size of irrep 1 of <iA|bC> integrals:      0.153 (MW) /      1.223 (MB)
	Size of irrep 2 of <iA|bC> integrals:      0.226 (MW) /      1.812 (MB)
	Size of irrep 3 of <iA|bC> integrals:      0.226 (MW) /      1.812 (MB)
	Size of irrep 4 of <iA|bC> integrals:      0.158 (MW) /      1.264 (MB)
	Size of irrep 5 of <iA|bC> integrals:      0.310 (MW) /      2.480 (MB)
	Size of irrep 6 of <iA|bC> integrals:      0.224 (MW) /      1.789 (MB)
	Size of irrep 7 of <iA|bC> integrals:      0.224 (MW) /      1.789 (MB)
	Total:                                     1.825 (MW) /     14.596 (MB)

	Size of irrep 0 of tIjAb amplitudes:       0.016 (MW) /      0.131 (MB)
	Size of irrep 1 of tIjAb amplitudes:       0.005 (MW) /      0.042 (MB)
	Size of irrep 2 of tIjAb amplitudes:       0.006 (MW) /      0.047 (MB)
	Size of irrep 3 of tIjAb amplitudes:       0.006 (MW) /      0.047 (MB)
	Size of irrep 4 of tIjAb amplitudes:       0.000 (MW) /      0.000 (MB)
	Size of irrep 5 of tIjAb amplitudes:       0.010 (MW) /      0.078 (MB)
	Size of irrep 6 of tIjAb amplitudes:       0.009 (MW) /      0.071 (MB)
	Size of irrep 7 of tIjAb amplitudes:       0.009 (MW) /      0.071 (MB)
	Total:                                     0.061 (MW) /      0.486 (MB)

	Nuclear Rep. energy          =     21.80091895130870
	SCF energy                   =   -108.39043691621370
	One-electron energy          =    -48.99629057529037
	Two-electron (AA) energy     =      4.77509142013314
	Two-electron (BB) energy     =      2.90935425101479
	Two-electron (AB) energy     =     11.26737917225776
	Two-electron energy          =     18.95182484340568
	Reference energy             =   -108.39043691621356

*** tstop() called on l43 at Wed Jan 20 21:06:09 2021
Module time:
	user time   =       9.66 seconds =       0.16 minutes
	system time =       5.04 seconds =       0.08 minutes
	total time  =         15 seconds =       0.25 minutes
Total time:
	user time   =      25.33 seconds =       0.42 minutes
	system time =       8.25 seconds =       0.14 minutes
	total time  =         29 seconds =       0.48 minutes
            **************************
            *                        *
            *        CCENERGY        *
            *                        *
            **************************

    Nuclear Rep. energy (wfn)     =   21.800918951308699
    SCF energy          (wfn)     = -108.390436916213702
    Reference energy    (file100) = -108.390436916213559

    Input parameters:
    -----------------
    Wave function   =     CCSD_T
    Reference wfn   =     UHF
    Brueckner       =     No
    Memory (Mbytes) =     250000.0
    Maxiter         =     50
    R_Convergence   =     1.0e-07
    E_Convergence   =     1.0e-06
    Restart         =     Yes
    DIIS            =     Yes
    AO Basis        =     NONE
    ABCD            =     NEW
    Cache Level     =     2
    Cache Type      =     LRU
    Print Level     =     1
    Num. of threads =     48
    # Amps to Print =     10
    Print MP2 Amps? =     No
    Analyze T2 Amps =     No
    Print Pair Ener =     No
    Local CC        =     No
    SCS-MP2         =     False

      * MP2 total energy                      = -108.821939759473921
      * CCSD total energy                     = -108.797178476228723
      * CCSD(T) total energy                     = -108.825725037980902
*** Psi4 exiting successfully. Buy a developer a beer!
