                               Psi4 1.2a1.dev939

  ==> Input File <==

--------------------------------------------------------------------------
# Any line starting with the # character is a comment line

memory 32000 mb

molecule molecule {
-1 1
Cl          0.0000000000        0.0000000000        0.0000000000
}

set {
  reference rhf

  basis aug-cc-pv(5+d)z
  scf_type OUT_OF_CORE
  freeze_core true
}

energy('ccsd')
--------------------------------------------------------------------------

    Molecular point group: d2h
    Geometry (in Angstrom), charge = -1, multiplicity = 1:

       Center              X                  Y                   Z               Mass
    ------------   -----------------  -----------------  -----------------  -----------------
          CL          0.000000000000     0.000000000000     0.000000000000    34.968852682000

  Charge       = -1
  Multiplicity = 1
  Basis Set: AUG-CC-PV(5+D)Z
    Blend: AUG-CC-PV(5+D)Z

    Orbital Energies (a.u.)
    -----------------------

    Doubly Occupied:

       1Ag  -104.505538     2Ag   -10.229426     1B2u   -7.695788
       1B1u   -7.695788     1B3u   -7.695788     3Ag    -0.733387
       2B2u   -0.150305     2B1u   -0.150305     2B3u   -0.150305

  @RHF Final Energy:  -459.57679335771138

   => Energetics <=

    Nuclear Repulsion Energy =              0.0000000000000000
    One-Electron Energy =                -641.1403253116952783
    Two-Electron Energy =                 181.5635319539838974
    PCM Polarization Energy =               0.0000000000000000
    Total Energy =                       -459.5767933577113808
      * MP2 total energy                      = -459.811567835817868
      * CCSD total energy                     = -459.823221245588570
*** Psi4 exiting successfully. Buy a developer a beer!
