                               Psi4 1.2a1.dev939

  ==> Input File <==

--------------------------------------------------------------------------
# Any line starting with the # character is a comment line

memory 32000 mb

molecule molecule {
-1 1
Cl          0.0000000000        0.0000000000        0.0000000000
}

set {
  reference rhf
  basis aug-cc-pv(Q+d)z
  scf_type OUT_OF_CORE
  freeze_core true
}

energy('ccsd')
--------------------------------------------------------------------------

    Molecular point group: d2h
    Geometry (in Angstrom), charge = -1, multiplicity = 1:

       Center              X                  Y                   Z               Mass
    ------------   -----------------  -----------------  -----------------  -----------------
          CL          0.000000000000     0.000000000000     0.000000000000    34.968852682000

  Charge       = -1
  Multiplicity = 1
  Basis Set: AUG-CC-PV(Q+D)Z
    Blend: AUG-CC-PV(Q+D)Z

    Orbital Energies (a.u.)
    -----------------------

    Doubly Occupied:

       1Ag  -104.505298     2Ag   -10.229411     1B1u   -7.695759
       1B3u   -7.695759     1B2u   -7.695759     3Ag    -0.733401
       2B2u   -0.150311     2B1u   -0.150311     2B3u   -0.150311

  @RHF Final Energy:  -459.57635315086998

   => Energetics <=

    Nuclear Repulsion Energy =              0.0000000000000000
    One-Electron Energy =                -641.1400602354829061
    Two-Electron Energy =                 181.5637070846129006
    Total Energy =                       -459.5763531508699771
      * MP2 total energy                      = -459.803083840345494
      * CCSD total energy                     = -459.817303024601017
*** Psi4 exiting successfully. Buy a developer a beer!
