                               Psi4 1.2a1.dev939

  ==> Input File <==

--------------------------------------------------------------------------
# Any line starting with the # character is a comment line

memory 32000 mb

molecule molecule {
-1 1
Cl          0.0000000000        0.0000000000        0.0000000000
}

set {
  reference rhf
  basis aug-cc-pv(D+d)z
  scf_type OUT_OF_CORE
  freeze_core true
}

energy('ccsd')
--------------------------------------------------------------------------

    Molecular point group: d2h
    Geometry (in Angstrom), charge = -1, multiplicity = 1:

       Center              X                  Y                   Z               Mass
    ------------   -----------------  -----------------  -----------------  -----------------
          CL          0.000000000000     0.000000000000     0.000000000000    34.968852682000

  Charge       = -1
  Multiplicity = 1
  Basis Set: AUG-CC-PV(D+D)Z
    Blend: AUG-CC-PV(D+D)Z

    Orbital Energies (a.u.)
    -----------------------

    Doubly Occupied:

       1Ag  -104.508635     2Ag   -10.231433     1B3u   -7.697343
       1B2u   -7.697343     1B1u   -7.697343     3Ag    -0.734169
       2B2u   -0.150534     2B1u   -0.150534     2B3u   -0.150534

  @RHF Final Energy:  -459.56364477367060

   => Energetics <=

    Nuclear Repulsion Energy =              0.0000000000000000
    One-Electron Energy =                -641.0915517139957274
    Two-Electron Energy =                 181.5279069403251810
    Total Energy =                       -459.5636447736705463
      * MP2 total energy                      = -459.726555966857461
      * CCSD total energy                     = -459.739188060955826
*** Psi4 exiting successfully. Buy a developer a beer!
