                               Psi4 1.2a1.dev939

  ==> Input File <==

--------------------------------------------------------------------------
# Any line starting with the # character is a comment line
memory 250000 mb
molecule molecule{
-1 1
Cl          0.0000000000        0.0000000000        0.0000000000

}

set {
  reference rhf
  basis aug-cc-pv(6+d)z
  scf_type OUT_OF_CORE
  freeze_core true
}

energy('ccsd')
--------------------------------------------------------------------------

    Molecular point group: d2h
    Geometry (in Angstrom), charge = -1, multiplicity = 1:

       Center              X                  Y                   Z               Mass
    ------------   -----------------  -----------------  -----------------  -----------------
          CL          0.000000000000     0.000000000000     0.000000000000    34.968852682000

  Charge       = -1
  Multiplicity = 1
  Basis Set: AUG-CC-PV(6+D)Z
    Blend: AUG-CC-PV(6+D)Z

    Orbital Energies (a.u.)
    -----------------------

    Doubly Occupied:

       1Ag  -104.505696     2Ag   -10.229456     1B2u   -7.695848
       1B3u   -7.695848     1B1u   -7.695848     3Ag    -0.733381
       2B2u   -0.150303     2B3u   -0.150303     2B1u   -0.150303

  @RHF Final Energy:  -459.57690277674078

   => Energetics <=

    Nuclear Repulsion Energy =              0.0000000000000000
    One-Electron Energy =                -641.1398356742000715
    Two-Electron Energy =                 181.5629328974593477
    Total Energy =                       -459.5769027767407238
      * MP2 total energy                      = -459.816055046740871
      * CCSD total energy                     = -459.825980062709277
*** Psi4 exiting successfully. Buy a developer a beer!
