                               Psi4 1.2a1.dev939

  ==> Input File <==

--------------------------------------------------------------------------
# Any line starting with the # character is a comment line

memory 32000 mb

molecule molecule {
-1 1
Cl          0.0000000000        0.0000000000        0.0000000000
}

set {
  reference rhf
  basis aug-cc-pv(T+d)z
  scf_type OUT_OF_CORE
  freeze_core true
}

energy('ccsd')
--------------------------------------------------------------------------

    Molecular point group: d2h
    Geometry (in Angstrom), charge = -1, multiplicity = 1:

       Center              X                  Y                   Z               Mass
    ------------   -----------------  -----------------  -----------------  -----------------
          CL          0.000000000000     0.000000000000     0.000000000000    34.968852682000

  Charge       = -1
  Multiplicity = 1
  Basis Set: AUG-CC-PV(T+D)Z
    Blend: AUG-CC-PV(T+D)Z

    Orbital Energies (a.u.)
    -----------------------

    Doubly Occupied:

       1Ag  -104.505953     2Ag   -10.229740     1B2u   -7.695768
       1B3u   -7.695768     1B1u   -7.695768     3Ag    -0.733513
       2B1u   -0.150337     2B3u   -0.150337     2B2u   -0.150337

  @RHF Final Energy:  -459.57348137358559

   => Energetics <=

    Nuclear Repulsion Energy =              0.0000000000000000
    One-Electron Energy =                -641.1319224709758373
    Two-Electron Energy =                 181.5584410973902152
    PCM Polarization Energy =               0.0000000000000000
    Total Energy =                       -459.5734813735856505
      * MP2 total energy                      = -459.781540130135511
      * CCSD total energy                     = -459.796846479329929
*** Psi4 exiting successfully. Buy a developer a beer!
