                               Psi4 1.4a3.dev88

  ==> Input File <==

--------------------------------------------------------------------------
# Any line starting with the # character is a comment line
memory 250000 mb
molecule molecule{
1 2
Cl         0.0000000000        0.0000000000        0.0362353546
H          0.0000000000        0.0000000000       -1.2745322422
}

set {
  reference uhf
  basis aug-cc-pV(t+d)Z
  scf_type OUT_OF_CORE
  freeze_core true
}

energy('ccsd(t)')
--------------------------------------------------------------------------

    Molecular point group: c2v

    Geometry (in Angstrom), charge = 1, multiplicity = 2:

       Center              X                  Y                   Z               Mass
    ------------   -----------------  -----------------  -----------------  -----------------
         CL           0.000000000000     0.000000000000     0.036718910122    34.968852682000
         H            0.000000000000     0.000000000000    -1.274048686678     1.007825032230

  Charge       = 1
  Multiplicity = 2
  Basis Set: AUG-CC-PV(T+D)Z
    Blend: AUG-CC-PV(T+D)Z

    Orbital Energies [Eh]
    ---------------------

    Alpha Occupied:

       1A1  -105.303900     2A1   -11.021707     1B2    -8.507352
       3A1    -8.483249     1B1    -8.481070     4A1    -1.550927
       5A1    -0.999877     2B2    -0.950196     2B1    -0.869282

    Alpha Virtual:

       6A1    -0.173263     7A1    -0.101490     3B2    -0.073136
       8A1    -0.072010     3B1    -0.064557     4B2    -0.015309
       9A1    -0.012051     4B1     0.001632     1A2     0.041831
      10A1     0.043439    11A1     0.118361     5B2     0.162332
       5B1     0.178275    12A1     0.196560     6B2     0.322529
      13A1     0.335842     6B1     0.350842    14A1     0.404059
      15A1     0.490194     2A2     0.490453     7B2     0.494792
       7B1     0.521655    16A1     0.592045     3A2     0.595523
      17A1     0.610395     8B2     0.667978     8B1     0.680496
      18A1     0.767150     9B2     0.849965     9B1     0.850006
      10B2     0.955708    10B1     0.977312    19A1     0.977624
       4A2     1.051117    20A1     1.053648    11B2     1.399606
      21A1     1.412737    11B1     1.422849    22A1     1.521394
      23A1     1.908092     5A2     1.908933    12B2     1.998593
      24A1     2.001579    12B1     2.038738    13B2     2.385633
      13B1     2.434237    25A1     2.542057    14B2     2.599180
      14B1     2.626987    15B2     2.641457    15B1     2.651704
       6A2     2.670115    26A1     2.670339    27A1     2.893193
      28A1     3.259180     7A2     3.556316    29A1     3.556484
      16B2     4.024710    16B1     4.034050    17B2     4.065038
      17B1     4.082088    30A1     4.320513    31A1     4.713434
      32A1     6.620723     8A2     8.342497    33A1     8.342686
      18B2     8.428782    18B1     8.457241    34A1     9.059746

    Beta Occupied:

       1A1  -105.291476     2A1   -11.008878     3A1    -8.476344
       1B1    -8.474502     1B2    -8.454241     4A1    -1.434375
       5A1    -0.979645     2B1    -0.844825

    Beta Virtual:

       2B2    -0.376256     6A1    -0.163070     7A1    -0.093616
       8A1    -0.070638     3B1    -0.063726     3B2    -0.058156
       9A1    -0.007409     4B1     0.001845     4B2     0.009348
      10A1     0.077474     1A2     0.077673    11A1     0.125496
       5B1     0.179713     5B2     0.188098    12A1     0.201714
      13A1     0.339492     6B1     0.355151     6B2     0.376200
      14A1     0.410861     7B1     0.524540     7B2     0.533167
       2A2     0.545679    15A1     0.545731    16A1     0.605537
       3A2     0.605740    17A1     0.619838     8B1     0.680591
       8B2     0.682060    18A1     0.774127     9B1     0.870407
       9B2     0.870409    10B2     0.973211    10B1     0.978126
      19A1     0.990710     4A2     1.062984    20A1     1.063349
      11B2     1.419865    11B1     1.425100    21A1     1.432206
      22A1     1.526194    23A1     1.938988     5A2     1.939437
      24A1     2.005023    12B2     2.032041    12B1     2.041465
      13B1     2.442994    13B2     2.451796    25A1     2.549223
      14B2     2.636483    14B1     2.644254    15B2     2.681256
      15B1     2.681279    26A1     2.697889     6A2     2.697974
      27A1     2.902996    28A1     3.266310     7A2     3.558494
      29A1     3.558519    16B2     4.026400    16B1     4.032604
      17B2     4.072973    17B1     4.081212    30A1     4.321426
      31A1     4.716535    32A1     6.638186     8A2     8.356784
      33A1     8.356821    18B2     8.443225    18B1     8.459423
      34A1     9.066114

    Final Occupation by Irrep:
             A1    A2    B1    B2
    DOCC [     5,    0,    2,    1 ]
    SOCC [     0,    0,    0,    1 ]

  @UHF Final Energy:  -459.68541607114918

   => Energetics <=

    Nuclear Repulsion Energy =              6.8631636938173655
    One-Electron Energy =                -641.9653123075286203
    Two-Electron Energy =                 175.4167325425621016
    Total Energy =                       -459.6854160711491772

  UHF NO Occupations:
  HONO-2 :    4 A1 1.9995310
  HONO-1 :    5 A1 1.9947463
  HONO-0 :    2 B2 1.0000000
  LUNO+0 :    6 A1 0.0052537
  LUNO+1 :    7 A1 0.0004690
  LUNO+2 :    3 B1 0.0003530
  LUNO+3 :    3 B2 0.0000030

Computation Completed

Properties will be evaluated at   0.000000,   0.000000,   0.000000 [a0]

Properties computed using the SCF density matrix

  Nuclear Dipole Moment: [e a0]
     X:     0.0000      Y:     0.0000      Z:    -1.2280

  Electronic Dipole Moment: [e a0]
     X:     0.0000      Y:     0.0000      Z:     0.5357

  Dipole Moment: [e a0]
     X:     0.0000      Y:     0.0000      Z:    -0.6923     Total:     0.6923

  Dipole Moment: [D]
     X:     0.0000      Y:     0.0000      Z:    -1.7597     Total:     1.7597

*** tstop() called on n412-040.vsc4.prov at Tue Jan 26 18:18:47 2021
Module time:
	user time   =      34.30 seconds =       0.57 minutes
	system time =       2.33 seconds =       0.04 minutes
	total time  =          5 seconds =       0.08 minutes
Total time:
	user time   =      34.30 seconds =       0.57 minutes
	system time =       2.33 seconds =       0.04 minutes
	total time  =          5 seconds =       0.08 minutes

*** tstart() called on n412-040.vsc4.prov
*** at Tue Jan 26 18:18:47 2021

	Wfn Parameters:
	--------------------
	Wavefunction         = CCSD_T
	Number of irreps     = 4
	Number of MOs        = 78
	Number of active MOs = 73
	AO-Basis             = NONE
	Semicanonical        = false
	Reference            = UHF
	Print Level          = 1

	IRREP	# MOs	# FZDC	# DOCC	# SOCC	# VIRT	# FZVR
	-----	-----	------	------	------	------	------
	 A1	   34	    3	    2	    0	    29	    0
	 A2	   8	    0	    0	    0	    8	    0
	 B1	   18	    1	    1	    0	    16	    0
	 B2	   18	    1	    0	    1	    16	    0
	Transforming integrals...
	IWL integrals will be deleted.
	(OO|OO)...
	Presorting SO-basis two-electron integrals.
	Sorting File: SO Ints (nn|nn) nbuckets = 1
	Constructing frozen core operators
	Starting AA/AB first half-transformation.
	Sorting AA/AB half-transformed integrals.
	Starting BB first half-transformation.
	Sorting BB half-transformed integrals.
	First half integral transformation complete.
	Starting AA second half-transformation.
	Starting AB second half-transformation.
	Starting BB second half-transformation.
	Two-electron integral transformation complete.
	(OO|OV)...
	Starting AA second half-transformation.
	Starting AB second half-transformation.
	Starting BB second half-transformation.
	Two-electron integral transformation complete.
	(OO|VV)...
	Starting AA second half-transformation.
	Starting AB second half-transformation.
	Starting BB second half-transformation.
	Two-electron integral transformation complete.
	(OV|OO)...
	Starting AA/AB first half-transformation.
	Sorting AA/AB half-transformed integrals.
	Starting BB first half-transformation.
	Sorting BB half-transformed integrals.
	First half integral transformation complete.
	Starting AA second half-transformation.
	Starting AB second half-transformation.
	Starting BB second half-transformation.
	Two-electron integral transformation complete.
	(OV|OV)...
	Starting AA second half-transformation.
	Starting AB second half-transformation.
	Starting BB second half-transformation.
	Two-electron integral transformation complete.
	(OV|VV)...
	Starting AA second half-transformation.
	Starting AB second half-transformation.
	Starting BB second half-transformation.
	Two-electron integral transformation complete.
	(VV|OO)...
	Starting AA/AB first half-transformation.
	Sorting AA/AB half-transformed integrals.
	Starting BB first half-transformation.
	Sorting BB half-transformed integrals.
	First half integral transformation complete.
	Starting AA second half-transformation.
	Starting AB second half-transformation.
	Starting BB second half-transformation.
	Two-electron integral transformation complete.
	(VV|OV)...
	Starting AA second half-transformation.
	Starting AB second half-transformation.
	Starting BB second half-transformation.
	Two-electron integral transformation complete.
	(VV|VV)...
	Starting AA second half-transformation.
	Starting AB second half-transformation.
	Starting BB second half-transformation.
	Two-electron integral transformation complete.
	Frozen core energy     =   -448.78218164603584

	Size of irrep 0 of <AB|CD> integrals:      0.454 (MW) /      3.634 (MB)
	Size of irrep 1 of <AB|CD> integrals:      0.238 (MW) /      1.905 (MB)
	Size of irrep 2 of <AB|CD> integrals:      0.350 (MW) /      2.804 (MB)
	Size of irrep 3 of <AB|CD> integrals:      0.350 (MW) /      2.804 (MB)
	Total:                                     1.393 (MW) /     11.147 (MB)

	Size of irrep 0 of <ab|cd> integrals:      0.476 (MW) /      3.809 (MB)
	Size of irrep 1 of <ab|cd> integrals:      0.254 (MW) /      2.032 (MB)
	Size of irrep 2 of <ab|cd> integrals:      0.360 (MW) /      2.880 (MB)
	Size of irrep 3 of <ab|cd> integrals:      0.386 (MW) /      3.085 (MB)
	Total:                                     1.476 (MW) /     11.806 (MB)

	Size of irrep 0 of <Ab|Cd> integrals:      2.053 (MW) /     16.428 (MB)
	Size of irrep 1 of <Ab|Cd> integrals:      0.984 (MW) /      7.873 (MB)
	Size of irrep 2 of <Ab|Cd> integrals:      1.421 (MW) /     11.367 (MB)
	Size of irrep 3 of <Ab|Cd> integrals:      1.471 (MW) /     11.771 (MB)
	Total:                                     5.930 (MW) /     47.438 (MB)

	Size of irrep 0 of <IA|BC> integrals:      0.128 (MW) /      1.020 (MB)
	Size of irrep 1 of <IA|BC> integrals:      0.047 (MW) /      0.375 (MB)
	Size of irrep 2 of <IA|BC> integrals:      0.082 (MW) /      0.654 (MB)
	Size of irrep 3 of <IA|BC> integrals:      0.082 (MW) /      0.654 (MB)
	Total:                                     0.338 (MW) /      2.702 (MB)

	Size of irrep 0 of <ia|bc> integrals:      0.107 (MW) /      0.858 (MB)
	Size of irrep 1 of <ia|bc> integrals:      0.033 (MW) /      0.266 (MB)
	Size of irrep 2 of <ia|bc> integrals:      0.073 (MW) /      0.586 (MB)
	Size of irrep 3 of <ia|bc> integrals:      0.052 (MW) /      0.417 (MB)
	Total:                                     0.266 (MW) /      2.127 (MB)

	Size of irrep 0 of <Ia|Bc> integrals:      0.130 (MW) /      1.043 (MB)
	Size of irrep 1 of <Ia|Bc> integrals:      0.049 (MW) /      0.389 (MB)
	Size of irrep 2 of <Ia|Bc> integrals:      0.082 (MW) /      0.658 (MB)
	Size of irrep 3 of <Ia|Bc> integrals:      0.086 (MW) /      0.689 (MB)
	Total:                                     0.347 (MW) /      2.779 (MB)

	Size of irrep 0 of <iA|bC> integrals:      0.106 (MW) /      0.848 (MB)
	Size of irrep 1 of <iA|bC> integrals:      0.032 (MW) /      0.254 (MB)
	Size of irrep 2 of <iA|bC> integrals:      0.073 (MW) /      0.582 (MB)
	Size of irrep 3 of <iA|bC> integrals:      0.049 (MW) /      0.388 (MB)
	Total:                                     0.259 (MW) /      2.072 (MB)

	Size of irrep 0 of tIjAb amplitudes:       0.007 (MW) /      0.057 (MB)
	Size of irrep 1 of tIjAb amplitudes:       0.001 (MW) /      0.008 (MB)
	Size of irrep 2 of tIjAb amplitudes:       0.005 (MW) /      0.038 (MB)
	Size of irrep 3 of tIjAb amplitudes:       0.002 (MW) /      0.019 (MB)
	Total:                                     0.015 (MW) /      0.123 (MB)

	Nuclear Rep. energy          =      6.86316369381737
	SCF energy                   =   -459.68541607114918
	One-electron energy          =    -27.90366867946665
	Two-electron (AA) energy     =      2.62227159030167
	Two-electron (BB) energy     =      1.25508702672868
	Two-electron (AB) energy     =      6.25991194350669
	Two-electron energy          =     10.13727056053704
	Reference energy             =   -459.68541607114810

*** tstop() called on n412-040.vsc4.prov at Tue Jan 26 18:18:52 2021
Module time:
	user time   =       0.94 seconds =       0.02 minutes
	system time =       0.73 seconds =       0.01 minutes
	total time  =          5 seconds =       0.08 minutes
Total time:
	user time   =      35.24 seconds =       0.59 minutes
	system time =       3.06 seconds =       0.05 minutes
	total time  =         10 seconds =       0.17 minutes
            **************************
            *                        *
            *        CCENERGY        *
            *                        *
            **************************

    Nuclear Rep. energy (wfn)     =    6.863163693817365
    SCF energy          (wfn)     = -459.685416071149177
    Reference energy    (file100) = -459.685416071148097

    Input parameters:
    -----------------
    Wave function   =     CCSD_T
    Reference wfn   =     UHF
    Brueckner       =     No
    Memory (Mbytes) =     250000.0
    Maxiter         =     50
    R_Convergence   =     1.0e-07
    E_Convergence   =     1.0e-06
    Restart         =     Yes
    DIIS            =     Yes
    AO Basis        =     NONE
    ABCD            =     NEW
    Cache Level     =     2
    Cache Type      =     LRU
    Print Level     =     1
    Num. of threads =     48
    # Amps to Print =     10
    Print MP2 Amps? =     No
    Analyze T2 Amps =     No
    Print Pair Ener =     No
    Local CC        =     No
    SCS-MP2         =     False
    SCSN-MP2        =     False
    SCS-CCSD        =     False

MP2 correlation energy -0.1634256028898549
                Solving CC Amplitude Equations
                ------------------------------
  Iter             Energy              RMS        T1Diag      D1Diag    New D1Diag    D2Diag
  ----     ---------------------    ---------   ----------  ----------  ----------   --------
     0        -0.163425602889855    0.000e+00    0.000000    0.000000    0.000000    0.000000
     1        -0.182652554564319    4.368e-02    0.007409    0.000000    0.000000    0.000000
     2        -0.188874925584150    1.513e-02    0.011229    0.000000    0.000000    0.000000
     3        -0.189188675608521    3.725e-03    0.012428    0.000000    0.000000    0.000000
     4        -0.189200889336270    1.042e-03    0.012689    0.000000    0.000000    0.000000
     5        -0.189193261960023    3.483e-04    0.012746    0.000000    0.000000    0.000000
     6        -0.189195037606682    1.064e-04    0.012752    0.000000    0.000000    0.000000
     7        -0.189196065988283    3.251e-05    0.012751    0.000000    0.000000    0.000000
     8        -0.189195954054987    1.104e-05    0.012750    0.000000    0.000000    0.000000
     9        -0.189195902052727    3.615e-06    0.012750    0.000000    0.000000    0.000000
    10        -0.189195920094681    1.388e-06    0.012750    0.000000    0.000000    0.000000
    11        -0.189195922074849    5.099e-07    0.012750    0.000000    0.000000    0.000000
    12        -0.189195923655451    1.617e-07    0.012749    0.000000    0.000000    0.000000
    13        -0.189195922608126    4.770e-08    0.012749    0.000000    0.000000    0.000000

    Iterations converged.

    Largest TIA Amplitudes:
              3  54        -0.0068425475
              1  11         0.0062444570
              1   1        -0.0049906178
              1   8        -0.0040756466
              1  10         0.0040735418
              1   5         0.0037464975
              0   4        -0.0036174688
              1   9         0.0035549582
              0   1        -0.0035018309
              1   4        -0.0034433745

    Largest Tia Amplitudes:
              0   4         0.0120650041
              0   9         0.0110531397
              0   0         0.0090231627
              1   4         0.0076241144
              0   5        -0.0069996595
              0   1         0.0069844891
              2  38        -0.0066641311
              0  11        -0.0064888160
              1   9         0.0060237278
              2  39         0.0046276042

    Largest TIJAB Amplitudes:
      3   2  29   4         0.0236394407
      3   2  29   9        -0.0195728650
      3   2  30   4         0.0195198391
      3   2  30   9        -0.0190748930
      3   1  54   1         0.0151578688
      3   1  54   0         0.0140129251
      2   1  38   1         0.0135667114
      2   1  38   0         0.0134654759
      3   1  57   1        -0.0110046951
      2   1  41   1        -0.0105300698

    Largest Tijab Amplitudes:
      2   1  38   1         0.0149591236
      2   0  53  29        -0.0138620402
      2   0  53  30        -0.0126611094
      2   1  38   0         0.0123480465
      2   1  41   1        -0.0112156560
      2   1  39   1        -0.0099446923
      1   0  55  53        -0.0097776288
      1   0  58  53        -0.0096137085
      2   1  38   4        -0.0087761006
      2   1  41   0        -0.0083672264

    Largest TIjAb Amplitudes:
      1   1   0   0        -0.0382114708
      1   1   0   1        -0.0341182868
      2   0  29  53         0.0317074412
      3   0   4  53         0.0308971573
      3   0   9  53        -0.0303754306
      2   0  30  53         0.0298666609
      1   1   1   1        -0.0289237989
      1   1   1   0        -0.0278822386
      2   2   4   4        -0.0239864558
      1   0  54  53         0.0235577595

    SCF energy       (wfn)                    = -459.685416071149177
    Reference energy (file100)                = -459.685416071148097

    Opposite-spin MP2 correlation energy      =   -0.128437095322725
    Same-spin MP2 correlation energy          =   -0.034988507567130

      * MP2 total energy                      = -459.848841674037942
      * CCSD total energy                     = -459.874611993756218
      * CCSD(T) total energy                     = -459.880870437669671
*** Psi4 exiting successfully. Buy a developer a beer!
