                               Psi4 1.4a3.dev88

  ==> Input File <==

--------------------------------------------------------------------------
# Any line starting with the # character is a comment line
memory 250000 mb
molecule molecule{
1 2
Cl         0.0000000000        0.0000000000        0.0362353546
H          0.0000000000        0.0000000000       -1.2745322422
}

set {
  reference uhf
  basis aug-cc-pv(q+d)z
  scf_type OUT_OF_CORE
  freeze_core true
}

energy('ccsd(t)')
--------------------------------------------------------------------------

    Molecular point group: c2v

    Geometry (in Angstrom), charge = 1, multiplicity = 2:

       Center              X                  Y                   Z               Mass
    ------------   -----------------  -----------------  -----------------  -----------------
         CL           0.000000000000     0.000000000000     0.036718910122    34.968852682000
         H            0.000000000000     0.000000000000    -1.274048686678     1.007825032230

  Charge       = 1
  Multiplicity = 2
  Basis Set: AUG-CC-PV(Q+D)Z
    Blend: AUG-CC-PV(Q+D)Z

    Orbital Energies [Eh]
    ---------------------

    Alpha Occupied:

       1A1  -105.302621     2A1   -11.021253     1B2    -8.507324
       3A1    -8.483088     1B1    -8.481153     4A1    -1.550703
       5A1    -0.999706     2B2    -0.950259     2B1    -0.869278

    Alpha Virtual:

       6A1    -0.173456     7A1    -0.104508     3B2    -0.079246
       8A1    -0.078157     3B1    -0.071659     4B2    -0.030175
       9A1    -0.026121     4B1    -0.015983     1A2     0.006417
      10A1     0.008273    11A1     0.073241     5B2     0.106959
       5B1     0.117103    12A1     0.131588    13A1     0.203385
       6B2     0.204781     6B1     0.225267    14A1     0.248234
       7B2     0.282610     2A2     0.298736    15A1     0.300382
       7B1     0.304457    16A1     0.414125     3A2     0.415668
      17A1     0.440964     8B2     0.466241     8B1     0.479019
       9B2     0.536070     9B1     0.536106    18A1     0.549294
      19A1     0.655611    10B2     0.658871    10B1     0.673111
       4A2     0.694727    20A1     0.696056    21A1     0.822500
      11B2     0.991566    11B1     1.011979    22A1     1.063044
      12B2     1.210167    23A1     1.218728     5A2     1.223687
      24A1     1.241068    12B1     1.241456    13B2     1.305152
      13B1     1.305256    25A1     1.414982    14B2     1.441052
      14B1     1.480059     6A2     1.530327    26A1     1.530327
      27A1     1.567936     7A2     1.572719    28A1     1.582251
      15B2     1.588877    15B1     1.602515    16B2     1.680487
      16B1     1.680807     8A2     1.684833    29A1     1.685109
      17B2     1.749385    17B1     1.771929    18B2     1.774265
      18B1     1.781482    30A1     1.802206     9A2     1.811148
      31A1     1.839978    19B2     2.152475    19B1     2.176220
      32A1     2.229910    33A1     2.416503    34A1     2.703720
      10A2     2.780030    35A1     2.780482    20B2     2.786877
      20B1     2.802820    36A1     3.063304    21B2     3.177242
      21B1     3.201263    11A2     3.347760    37A1     3.350665
      38A1     3.580766    22B2     3.754243    22B1     3.790630
      39A1     3.805285    12A2     4.237291    40A1     4.237793
      23B2     4.261482    23B1     4.264645    24B2     4.294412
      41A1     4.297356    13A2     4.297359    24B1     4.322968
      25B2     4.325406    25B1     4.333764    42A1     4.434053
      14A2     4.435954    43A1     4.636862    26B2     4.868934
      26B1     4.902591    44A1     4.925884    27B2     5.767622
      27B1     5.817398    28B2     6.231218    28B1     6.231219
      45A1     6.669603    15A2     6.669677    46A1     6.781180
      29B2     7.243492    29B1     7.256864    47A1     7.514333
      48A1     7.807941    16A2     8.289841    49A1     8.289872
      30B2     8.365129    30B1     8.376900    31B2     9.002666
      31B1     9.010073    50A1     9.325036    51A1    10.636065
      52A1    10.936454    17A2    10.936546    32B2    11.148720
      32B1    11.177667    53A1    11.722844    54A1    25.127672

    Beta Occupied:

       1A1  -105.290083     2A1   -11.008344     3A1    -8.476076
       1B1    -8.474499     1B2    -8.453552     4A1    -1.434113
       5A1    -0.979586     2B1    -0.844927

    Beta Virtual:

       2B2    -0.375866     6A1    -0.163229     7A1    -0.097237
       8A1    -0.076841     3B1    -0.070995     3B2    -0.066442
       9A1    -0.022120     4B1    -0.015833     4B2    -0.010938
       1A2     0.028764    10A1     0.028793    11A1     0.078483
       5B1     0.117895     5B2     0.121730    12A1     0.135116
      13A1     0.206788     6B1     0.227718     6B2     0.243942
      14A1     0.253501     7B1     0.306777     7B2     0.317163
       2A2     0.349695    15A1     0.350303     3A2     0.423467
      16A1     0.423660    17A1     0.447296     8B1     0.479705
       8B2     0.482530     9B1     0.544907     9B2     0.544916
      18A1     0.557229    19A1     0.662155    10B2     0.667342
      10B1     0.673313     4A2     0.700336    20A1     0.701011
      21A1     0.833720    11B1     1.014896    11B2     1.017264
      22A1     1.069634    12B2     1.241531    23A1     1.241797
      12B1     1.243773     5A2     1.262152    24A1     1.262384
      13B2     1.309106    13B1     1.309117    25A1     1.419129
      14B1     1.485668    14B2     1.489668    26A1     1.541549
       6A2     1.541551    27A1     1.577666     7A2     1.585963
      28A1     1.588690    15B2     1.597017    15B1     1.603840
       8A2     1.685970    29A1     1.686154    16B2     1.714478
      16B1     1.714479    17B2     1.770818    17B1     1.776712
      18B2     1.780940    18B1     1.783540    30A1     1.823371
       9A2     1.825513    31A1     1.840970    19B2     2.170744
      19B1     2.178259    32A1     2.239423    33A1     2.422159
      34A1     2.714904    10A2     2.784266    35A1     2.784468
      20B2     2.792791    20B1     2.802337    36A1     3.077552
      21B2     3.189115    21B1     3.201858    11A2     3.367951
      37A1     3.368377    38A1     3.585984    22B2     3.774947
      22B1     3.794704    39A1     3.814741    12A2     4.260403
      40A1     4.260451    23B2     4.301726    23B1     4.302432
      24B2     4.318263    41A1     4.326615    13A2     4.326616
      24B1     4.332900    25B2     4.347017    25B1     4.347170
      42A1     4.453443    14A2     4.453909    43A1     4.644031
      26B2     4.886290    26B1     4.903932    44A1     4.933521
      27B2     5.817467    27B1     5.824184    28B2     6.231625
      28B1     6.231625    45A1     6.671902    15A2     6.671968
      46A1     6.784616    29B2     7.247759    29B1     7.256323
      47A1     7.516103    48A1     7.806872    16A2     8.288929
      49A1     8.288946    30B2     8.368044    30B1     8.376022
      31B2     9.003061    31B1     9.008872    50A1     9.324376
      51A1    10.637298    52A1    10.951999    17A2    10.952038
      32B2    11.164681    32B1    11.180295    53A1    11.729780
      54A1    25.141441

    Final Occupation by Irrep:
             A1    A2    B1    B2
    DOCC [     5,    0,    2,    1 ]
    SOCC [     0,    0,    0,    1 ]

  @UHF Final Energy:  -459.68904175737310

   => Energetics <=

    Nuclear Repulsion Energy =              6.8631636938173655
    One-Electron Energy =                -641.9778467299795466
    Two-Electron Energy =                 175.4256412787891293
    Total Energy =                       -459.6890417573730474

  UHF NO Occupations:
  HONO-2 :    4 A1 1.9995245
  HONO-1 :    5 A1 1.9947040
  HONO-0 :    2 B2 1.0000000
  LUNO+0 :    6 A1 0.0052960
  LUNO+1 :    7 A1 0.0004755
  LUNO+2 :    3 B1 0.0003651
  LUNO+3 :    3 B2 0.0000040

Computation Completed

Properties will be evaluated at   0.000000,   0.000000,   0.000000 [a0]

Properties computed using the SCF density matrix

  Nuclear Dipole Moment: [e a0]
     X:     0.0000      Y:     0.0000      Z:    -1.2280

  Electronic Dipole Moment: [e a0]
     X:     0.0000      Y:     0.0000      Z:     0.5366

  Dipole Moment: [e a0]
     X:     0.0000      Y:     0.0000      Z:    -0.6914     Total:     0.6914

  Dipole Moment: [D]
     X:     0.0000      Y:     0.0000      Z:    -1.7573     Total:     1.7573

*** tstop() called on n412-037.vsc4.prov at Wed Jan 20 19:50:24 2021
Module time:
	user time   =      59.26 seconds =       0.99 minutes
	system time =       2.86 seconds =       0.05 minutes
	total time  =         17 seconds =       0.28 minutes
Total time:
	user time   =      59.26 seconds =       0.99 minutes
	system time =       2.86 seconds =       0.05 minutes
	total time  =         17 seconds =       0.28 minutes

*** tstart() called on n412-037.vsc4.prov
*** at Wed Jan 20 19:50:24 2021

	Wfn Parameters:
	--------------------
	Wavefunction         = CCSD_T
	Number of irreps     = 4
	Number of MOs        = 135
	Number of active MOs = 130
	AO-Basis             = NONE
	Semicanonical        = false
	Reference            = UHF
	Print Level          = 1

	IRREP	# MOs	# FZDC	# DOCC	# SOCC	# VIRT	# FZVR
	-----	-----	------	------	------	------	------
	 A1	   54	    3	    2	    0	    49	    0
	 A2	   17	    0	    0	    0	    17	    0
	 B1	   32	    1	    1	    0	    30	    0
	 B2	   32	    1	    0	    1	    30	    0
	Transforming integrals...
	IWL integrals will be deleted.
	(OO|OO)...
	Presorting SO-basis two-electron integrals.
	Sorting File: SO Ints (nn|nn) nbuckets = 1
	Constructing frozen core operators
	Starting AA/AB first half-transformation.
	Sorting AA/AB half-transformed integrals.
	Starting BB first half-transformation.
	Sorting BB half-transformed integrals.
	First half integral transformation complete.
	Starting AA second half-transformation.
	Starting AB second half-transformation.
	Starting BB second half-transformation.
	Two-electron integral transformation complete.
	(OO|OV)...
	Starting AA second half-transformation.
	Starting AB second half-transformation.
	Starting BB second half-transformation.
	Two-electron integral transformation complete.
	(OO|VV)...
	Starting AA second half-transformation.
	Starting AB second half-transformation.
	Starting BB second half-transformation.
	Two-electron integral transformation complete.
	(OV|OO)...
	Starting AA/AB first half-transformation.
	Sorting AA/AB half-transformed integrals.
	Starting BB first half-transformation.
	Sorting BB half-transformed integrals.
	First half integral transformation complete.
	Starting AA second half-transformation.
	Starting AB second half-transformation.
	Starting BB second half-transformation.
	Two-electron integral transformation complete.
	(OV|OV)...
	Starting AA second half-transformation.
	Starting AB second half-transformation.
	Starting BB second half-transformation.
	Two-electron integral transformation complete.
	(OV|VV)...
	Starting AA second half-transformation.
	Starting AB second half-transformation.
	Starting BB second half-transformation.
	Two-electron integral transformation complete.
	(VV|OO)...
	Starting AA/AB first half-transformation.
	Sorting AA/AB half-transformed integrals.
	Starting BB first half-transformation.
	Sorting BB half-transformed integrals.
	First half integral transformation complete.
	Starting AA second half-transformation.
	Starting AB second half-transformation.
	Starting BB second half-transformation.
	Two-electron integral transformation complete.
	(VV|OV)...
	Starting AA second half-transformation.
	Starting AB second half-transformation.
	Starting BB second half-transformation.
	Two-electron integral transformation complete.
	(VV|VV)...
	Starting AA second half-transformation.
	Starting AB second half-transformation.
	Starting BB second half-transformation.
	Two-electron integral transformation complete.
	Frozen core energy     =   -448.78471332694920

	Size of irrep 0 of <AB|CD> integrals:      4.761 (MW) /     38.089 (MB)
	Size of irrep 1 of <AB|CD> integrals:      3.003 (MW) /     24.026 (MB)
	Size of irrep 2 of <AB|CD> integrals:      3.920 (MW) /     31.363 (MB)
	Size of irrep 3 of <AB|CD> integrals:      3.920 (MW) /     31.363 (MB)
	Total:                                    15.605 (MW) /    124.842 (MB)

	Size of irrep 0 of <ab|cd> integrals:      4.893 (MW) /     39.144 (MB)
	Size of irrep 1 of <ab|cd> integrals:      3.108 (MW) /     24.865 (MB)
	Size of irrep 2 of <ab|cd> integrals:      3.988 (MW) /     31.904 (MB)
	Size of irrep 3 of <ab|cd> integrals:      4.117 (MW) /     32.935 (MB)
	Total:                                    16.106 (MW) /    128.848 (MB)

	Size of irrep 0 of <Ab|Cd> integrals:     20.430 (MW) /    163.443 (MB)
	Size of irrep 1 of <Ab|Cd> integrals:     12.222 (MW) /     97.776 (MB)
	Size of irrep 2 of <Ab|Cd> integrals:     15.817 (MW) /    126.532 (MB)
	Size of irrep 3 of <Ab|Cd> integrals:     16.072 (MW) /    128.577 (MB)
	Total:                                    64.541 (MW) /    516.328 (MB)

	Size of irrep 0 of <IA|BC> integrals:      0.709 (MW) /      5.675 (MB)
	Size of irrep 1 of <IA|BC> integrals:      0.326 (MW) /      2.606 (MB)
	Size of irrep 2 of <IA|BC> integrals:      0.499 (MW) /      3.992 (MB)
	Size of irrep 3 of <IA|BC> integrals:      0.499 (MW) /      3.992 (MB)
	Total:                                     2.033 (MW) /     16.265 (MB)

	Size of irrep 0 of <ia|bc> integrals:      0.583 (MW) /      4.660 (MB)
	Size of irrep 1 of <ia|bc> integrals:      0.229 (MW) /      1.834 (MB)
	Size of irrep 2 of <ia|bc> integrals:      0.435 (MW) /      3.483 (MB)
	Size of irrep 3 of <ia|bc> integrals:      0.321 (MW) /      2.565 (MB)
	Total:                                     1.568 (MW) /     12.541 (MB)

	Size of irrep 0 of <Ia|Bc> integrals:      0.719 (MW) /      5.749 (MB)
	Size of irrep 1 of <Ia|Bc> integrals:      0.332 (MW) /      2.657 (MB)
	Size of irrep 2 of <Ia|Bc> integrals:      0.501 (MW) /      4.009 (MB)
	Size of irrep 3 of <Ia|Bc> integrals:      0.513 (MW) /      4.105 (MB)
	Total:                                     2.065 (MW) /     16.520 (MB)

	Size of irrep 0 of <iA|bC> integrals:      0.579 (MW) /      4.628 (MB)
	Size of irrep 1 of <iA|bC> integrals:      0.224 (MW) /      1.790 (MB)
	Size of irrep 2 of <iA|bC> integrals:      0.433 (MW) /      3.468 (MB)
	Size of irrep 3 of <iA|bC> integrals:      0.309 (MW) /      2.470 (MB)
	Total:                                     1.544 (MW) /     12.356 (MB)

	Size of irrep 0 of tIjAb amplitudes:       0.023 (MW) /      0.181 (MB)
	Size of irrep 1 of tIjAb amplitudes:       0.003 (MW) /      0.028 (MB)
	Size of irrep 2 of tIjAb amplitudes:       0.016 (MW) /      0.127 (MB)
	Size of irrep 3 of tIjAb amplitudes:       0.008 (MW) /      0.064 (MB)
	Total:                                     0.050 (MW) /      0.400 (MB)

	Nuclear Rep. energy          =      6.86316369381737
	SCF energy                   =   -459.68904175737310
	One-electron energy          =    -27.90641277880493
	Two-electron (AA) energy     =      2.62260107102646
	Two-electron (BB) energy     =      1.25527228057039
	Two-electron (AB) energy     =      6.26104730296763
	Two-electron energy          =     10.13892065456447
	Reference energy             =   -459.68904175737231

*** tstop() called on n412-037.vsc4.prov at Wed Jan 20 19:50:53 2021
Module time:
	user time   =       9.56 seconds =       0.16 minutes
	system time =       3.91 seconds =       0.07 minutes
	total time  =         29 seconds =       0.48 minutes
Total time:
	user time   =      68.82 seconds =       1.15 minutes
	system time =       6.77 seconds =       0.11 minutes
	total time  =         46 seconds =       0.77 minutes
            **************************
            *                        *
            *        CCENERGY        *
            *                        *
            **************************

    Nuclear Rep. energy (wfn)     =    6.863163693817365
    SCF energy          (wfn)     = -459.689041757373104
    Reference energy    (file100) = -459.689041757372308

    Input parameters:
    -----------------
    Wave function   =     CCSD_T
    Reference wfn   =     UHF
    Brueckner       =     No
    Memory (Mbytes) =     250000.0
    Maxiter         =     50
    R_Convergence   =     1.0e-07
    E_Convergence   =     1.0e-06
    Restart         =     Yes
    DIIS            =     Yes
    AO Basis        =     NONE
    ABCD            =     NEW
    Cache Level     =     2
    Cache Type      =     LRU
    Print Level     =     1
    Num. of threads =     48
    # Amps to Print =     10
    Print MP2 Amps? =     No
    Analyze T2 Amps =     No
    Print Pair Ener =     No
    Local CC        =     No
    SCS-MP2         =     False
    SCSN-MP2        =     False
    SCS-CCSD        =     False

MP2 correlation energy -0.1772424752882742
                Solving CC Amplitude Equations
                ------------------------------
  Iter             Energy              RMS        T1Diag      D1Diag    New D1Diag    D2Diag
  ----     ---------------------    ---------   ----------  ----------  ----------   --------
     0        -0.177242475288274    0.000e+00    0.000000    0.000000    0.000000    0.000000
     1        -0.194847939424447    4.278e-02    0.007841    0.000000    0.000000    0.000000
     2        -0.200977156748395    1.485e-02    0.011602    0.000000    0.000000    0.000000
     3        -0.201249068025102    3.678e-03    0.012762    0.000000    0.000000    0.000000
     4        -0.201266142769522    1.104e-03    0.013061    0.000000    0.000000    0.000000
     5        -0.201257662301939    3.375e-04    0.013112    0.000000    0.000000    0.000000
     6        -0.201258260643168    1.116e-04    0.013122    0.000000    0.000000    0.000000
     7        -0.201259682618495    3.515e-05    0.013121    0.000000    0.000000    0.000000
     8        -0.201259658375845    1.097e-05    0.013120    0.000000    0.000000    0.000000
     9        -0.201259564425528    3.760e-06    0.013120    0.000000    0.000000    0.000000
    10        -0.201259570472930    1.425e-06    0.013119    0.000000    0.000000    0.000000
    11        -0.201259583585888    5.579e-07    0.013119    0.000000    0.000000    0.000000
    12        -0.201259593672350    1.842e-07    0.013119    0.000000    0.000000    0.000000
    13        -0.201259592855131    5.937e-08    0.013119    0.000000    0.000000    0.000000

    Iterations converged.

    Largest TIA Amplitudes:
              3  97         0.0062551311
              1  11        -0.0055355383
              1   1         0.0054534645
              1   8        -0.0044546815
              1   0        -0.0041213308
              3 100        -0.0040123699
              0   9        -0.0038385351
              1  12        -0.0037736892
              0   1         0.0035347081
              1  18         0.0034860482

    Largest Tia Amplitudes:
              0   9         0.0127797770
              0   0        -0.0098637443
              0   4        -0.0097527850
              1   9        -0.0069866471
              0   1         0.0068194092
              1   4         0.0061157691
              2  67        -0.0060414082
              0   5         0.0057886242
              0  18         0.0054897755
              2  70         0.0051645007

    Largest TIJAB Amplitudes:
      3   2  50   9        -0.0220353285
      3   2  49   9        -0.0183772338

      * MP2 total energy                      = -459.866284232660576
      * CCSD total energy                     = -459.890301350227446
      * CCSD(T) total energy                     = -459.897461442038889
*** Psi4 exiting successfully. Buy a developer a beer!
