                               Psi4 1.4a3.dev88

  ==> Input File <==

--------------------------------------------------------------------------
# Any line starting with the # character is a comment line
memory 250000 mb
molecule molecule{
1 2
Cl         0.0000000000        0.0000000000        0.0362353546
H          0.0000000000        0.0000000000       -1.2745322422
}

set {
  reference uhf
  basis aug-cc-pV(5+d)Z
  scf_type OUT_OF_CORE
  freeze_core true
}

energy('ccsd(t)')
--------------------------------------------------------------------------

    Molecular point group: c2v

    Geometry (in Angstrom), charge = 1, multiplicity = 2:

       Center              X                  Y                   Z               Mass
    ------------   -----------------  -----------------  -----------------  -----------------
         CL           0.000000000000     0.000000000000     0.036718910122    34.968852682000
         H            0.000000000000     0.000000000000    -1.274048686678     1.007825032230

  Charge       = 1
  Multiplicity = 2
  Basis Set: AUG-CC-PV(5+D)Z
    Blend: AUG-CC-PV(5+D)Z

    Orbital Energies [Eh]
    ---------------------

    Alpha Occupied:

       1A1  -105.302768     2A1   -11.021058     1B2    -8.507419
       3A1    -8.483010     1B1    -8.481250     4A1    -1.550665
       5A1    -0.999747     2B2    -0.950286     2B1    -0.869307

    Alpha Virtual:

       6A1    -0.173563     7A1    -0.106222     3B2    -0.082292
       8A1    -0.081247     3B1    -0.075262     4B2    -0.037774
       9A1    -0.035404     4B1    -0.025574     1A2    -0.001698
      10A1    -0.000290    11A1     0.044699     5B2     0.081611
       5B1     0.091931    12A1     0.100819    13A1     0.142156
       6B2     0.152122     6B1     0.169011    14A1     0.187770
       7B2     0.232424     7B1     0.248885     2A2     0.254067
      15A1     0.254652    16A1     0.307632     3A2     0.308814
      17A1     0.345352     8B2     0.368678     8B1     0.369498
       9B2     0.372448     9B1     0.386419    18A1     0.457619
      19A1     0.478930    10B2     0.483416    10B1     0.493182
       4A2     0.504835    20A1     0.505825    21A1     0.587150
      11B2     0.793760    11B1     0.813512    22A1     0.815498
      12B2     0.947507    12B1     0.947783    23A1     0.958751
      13B2     0.974136    13B1     0.992338     5A2     1.042068
      24A1     1.042557    14B2     1.047145     6A2     1.057884
      25A1     1.057942     7A2     1.065445    26A1     1.065932
      14B1     1.081779    27A1     1.107451    15B2     1.189728
      28A1     1.194230    15B1     1.202151    16B2     1.204735
      16B1     1.207263     8A2     1.216243    29A1     1.218320
      17B2     1.273008    17B1     1.274925    18B2     1.276062
      18B1     1.294863    30A1     1.308316     9A2     1.310709
      31A1     1.341619    32A1     1.500365    19B2     1.620728
      19B1     1.644054    33A1     1.712724    34A1     2.067924
      10A2     2.149572    35A1     2.150057    20B2     2.170548
      20B1     2.184096    36A1     2.348193    21B2     2.470598
      21B1     2.488824    37A1     2.584025    11A2     2.610102
      38A1     2.610102    39A1     2.765269    12A2     2.765755
      22B2     2.834113    22B1     2.836433    40A1     2.842738
      23B2     2.865565    23B1     2.883519    24B2     2.885387
      24B1     2.901644    13A2     2.918991    41A1     2.920902
      14A2     2.950189    42A1     2.952743    25B2     2.993161
      25B1     3.025190    15A2     3.067532    43A1     3.068092
      26B2     3.073117    26B1     3.073136    27B2     3.081293
      27B1     3.105071    44A1     3.116672    28B2     3.131838
      28B1     3.132780    16A2     3.178618    45A1     3.180226
      46A1     3.304534    17A2     3.309583    47A1     3.309590
      29B2     3.434897    29B1     3.434913    48A1     3.580739
      30B2     3.668468    30B1     3.695384    18A2     3.840262
      49A1     3.840446    50A1     3.861534    31B2     4.090173
      31B1     4.132748    51A1     4.283896    32B2     4.357008
      32B1     4.370953    33B2     4.373474    33B1     4.384653
      52A1     5.144772    19A2     5.144830    53A1     5.234278
      34B2     5.401496    34B1     5.418637    54A1     5.495504
      20A2     5.583616    55A1     5.583839    35B2     5.776518
      35B1     5.795758    56A1     6.170975    36B2     6.189258
      36B1     6.189307    37B2     6.406065    57A1     6.409953
      21A2     6.410112    37B1     6.436073    38B2     6.545507
      58A1     6.562164    38B1     6.582903    59A1     6.645931
      22A2     6.927139    60A1     6.928813    61A1     7.015606
      23A2     7.015645    39B2     7.063399    39B1     7.063448
      62A1     7.109860    24A2     7.112238    63A1     7.147810
      40B2     7.298880    40B1     7.298881    25A2     7.345504
      64A1     7.345505    41B2     7.450910    41B1     7.451126
      42B2     7.588254    42B1     7.622216    43B2     7.686442
      43B1     7.718269    65A1     7.765593    26A2     7.767889
      66A1     7.887195    67A1     8.422575    44B2     8.515914
      44B1     8.552397    68A1     9.810449    45B2    12.593058
      45B1    12.593058    27A2    12.739450    69A1    12.739450
      46B2    12.889342    46B1    12.889342    70A1    13.048261
      28A2    13.048264    47B2    13.354024    47B1    13.363656
      71A1    13.540941    29A2    13.541250    72A1    13.579769
      73A1    13.832637    48B2    13.949104    48B1    13.953440
      30A2    14.008017    74A1    14.008041    75A1    14.181030
      49B2    15.242610    49B1    15.252647    76A1    16.749299
      50B2    17.156348    50B1    17.160983    77A1    18.635192
      78A1    20.130536    31A2    20.130615    51B2    20.525834
      51B1    20.550206    79A1    21.011958    52B2    38.177146
      52B1    38.199973    80A1    40.272709    81A1    85.771266

    Beta Occupied:

       1A1  -105.289585     2A1   -11.008420     3A1    -8.475987
       1B1    -8.474605     1B2    -8.453126     4A1    -1.434055
       5A1    -0.979622     2B1    -0.844954

    Beta Virtual:

       2B2    -0.375775     6A1    -0.163314     7A1    -0.099343
       8A1    -0.079970     3B1    -0.074671     3B2    -0.070635
       9A1    -0.032189     4B1    -0.025487     4B2    -0.022001
      10A1     0.017696     1A2     0.017860    11A1     0.049607
       5B1     0.092689     5B2     0.097290    12A1     0.103897
      13A1     0.143842     6B1     0.171017     6B2     0.184513
      14A1     0.191817     7B1     0.250152     7B2     0.255704
      15A1     0.282796     2A2     0.282832    16A1     0.333770
       3A2     0.334571    17A1     0.352736     8B1     0.373879
       8B2     0.373933     9B1     0.387547     9B2     0.394879
      18A1     0.463385    19A1     0.484473    10B2     0.487643
      10B1     0.493266     4A2     0.509545    20A1     0.510260
      21A1     0.592529    11B1     0.816628    11B2     0.822633
      22A1     0.822997    12B2     0.950169    12B1     0.950185
      23A1     0.967215    13B2     0.990314    13B1     0.993982
       5A2     1.052798    24A1     1.052800    25A1     1.063171
       6A2     1.063172    14B1     1.084883    14B2     1.091292
       7A2     1.095563    26A1     1.095802    27A1     1.110187
      28A1     1.198129    15B2     1.198224    15B1     1.206303
       8A2     1.221309    29A1     1.222954    16B1     1.225784
      16B2     1.225801    17B2     1.278315    17B1     1.278475
      18B2     1.287257    18B1     1.295040    30A1     1.321011
       9A2     1.321419    31A1     1.344584    32A1     1.507130
      19B2     1.644863    19B1     1.647353    33A1     1.717232
      34A1     2.079521    10A2     2.152126    35A1     2.152314
      20B2     2.174693    20B1     2.183602    36A1     2.354070
      21B2     2.480235    21B1     2.489120    37A1     2.592914
      38A1     2.613148    11A2     2.613148    39A1     2.783616
      12A2     2.783783    40A1     2.855575    22B2     2.858628
      22B1     2.858840    23B2     2.890945    23B1     2.903080
      24B2     2.912729    24B1     2.912928    13A2     2.945433
      41A1     2.945922    14A2     2.963053    42A1     2.963779
      25B2     3.010300    25B1     3.027259    43A1     3.081210
      15A2     3.081215    26B2     3.084027    26B1     3.084028
      27B2     3.095305    27B1     3.106482    44A1     3.127866
      28B2     3.138573    28B1     3.138845    16A2     3.186361
      45A1     3.186609    46A1     3.306805    17A2     3.316713
      47A1     3.316714    29B2     3.437823    29B1     3.437830
      48A1     3.585213    30B2     3.678049    30B1     3.696446
      49A1     3.846592    18A2     3.846617    50A1     3.863133
      31B2     4.136873    31B1     4.138640    51A1     4.286719
      32B2     4.367452    32B1     4.375171    33B2     4.377130
      33B1     4.385263    52A1     5.148678    19A2     5.148730
      53A1     5.237097    34B2     5.409497    34B1     5.418409
      54A1     5.500186    20A2     5.587247    55A1     5.587418
      35B2     5.784513    35B1     5.796490    56A1     6.178554
      36B2     6.214118    36B1     6.214128    37B2     6.419160
      57A1     6.424237    21A2     6.424393    37B1     6.436585
      38B2     6.565286    58A1     6.575896    38B1     6.587101
      59A1     6.657710    22A2     6.948735    60A1     6.949227
      61A1     7.039314    23A2     7.039324    39B2     7.083993
      39B1     7.084000    62A1     7.125044    24A2     7.126393
      63A1     7.152024    40B2     7.320605    40B1     7.320605
      25A2     7.362893    64A1     7.362893    41B2     7.464861
      41B1     7.464925    42B2     7.600866    42B1     7.622622
      43B2     7.699338    43B1     7.719803    65A1     7.777395
      26A2     7.778488    66A1     7.892878    67A1     8.429512
      44B2     8.532091    44B1     8.555174    68A1     9.814804
      45B2    12.592476    45B1    12.592476    27A2    12.739186
      69A1    12.739186    46B2    12.889506    46B1    12.889506
      70A1    13.048453    28A2    13.048459    47B2    13.355111
      47B1    13.362698    71A1    13.541030    29A2    13.541271
      72A1    13.578990    73A1    13.832451    48B2    13.948862
      48B1    13.952716    30A2    14.007348    74A1    14.007359
      75A1    14.179674    49B2    15.244426    49B1    15.252117
      76A1    16.749475    50B2    17.155639    50B1    17.159539
      77A1    18.634615    31A2    20.147653    78A1    20.147672
      51B2    20.542708    51B1    20.553212    79A1    21.018950
      52B1    38.204732    52B2    38.215292    80A1    40.277516
      81A1    85.779431

    Final Occupation by Irrep:
             A1    A2    B1    B2
    DOCC [     5,    0,    2,    1 ]
    SOCC [     0,    0,    0,    1 ]

  @UHF Final Energy:  -459.68970541340173

   => Energetics <=

    Nuclear Repulsion Energy =              6.8631636938173655
    One-Electron Energy =                -641.9798755461170003
    Two-Electron Energy =                 175.4270064388979051
    Total Energy =                       -459.6897054134017253

  UHF NO Occupations:
  HONO-2 :    4 A1 1.9995234
  HONO-1 :    5 A1 1.9946816
  HONO-0 :    2 B2 1.0000000
  LUNO+0 :    6 A1 0.0053184
  LUNO+1 :    7 A1 0.0004766
  LUNO+2 :    3 B1 0.0003674
  LUNO+3 :    3 B2 0.0000045

Computation Completed

Properties will be evaluated at   0.000000,   0.000000,   0.000000 [a0]

Properties computed using the SCF density matrix

  Nuclear Dipole Moment: [e a0]
     X:     0.0000      Y:     0.0000      Z:    -1.2280

  Electronic Dipole Moment: [e a0]
     X:     0.0000      Y:     0.0000      Z:     0.5370

  Dipole Moment: [e a0]
     X:     0.0000      Y:     0.0000      Z:    -0.6910     Total:     0.6910

  Dipole Moment: [D]
     X:     0.0000      Y:     0.0000      Z:    -1.7563     Total:     1.7563

*** tstop() called on n412-045.vsc4.prov at Thu Jan 21 17:51:38 2021
Module time:
	user time   =     156.55 seconds =       2.61 minutes
	system time =      11.48 seconds =       0.19 minutes
	total time  =         99 seconds =       1.65 minutes
Total time:
	user time   =     156.55 seconds =       2.61 minutes
	system time =      11.48 seconds =       0.19 minutes
	total time  =         99 seconds =       1.65 minutes

*** tstart() called on n412-045.vsc4.prov
*** at Thu Jan 21 17:51:38 2021

	Wfn Parameters:
	--------------------
	Wavefunction         = CCSD_T
	Number of irreps     = 4
	Number of MOs        = 216
	Number of active MOs = 211
	AO-Basis             = NONE
	Semicanonical        = false
	Reference            = UHF
	Print Level          = 1

	IRREP	# MOs	# FZDC	# DOCC	# SOCC	# VIRT	# FZVR
	-----	-----	------	------	------	------	------
	 A1	   81	    3	    2	    0	    76	    0
	 A2	   31	    0	    0	    0	    31	    0
	 B1	   52	    1	    1	    0	    50	    0
	 B2	   52	    1	    0	    1	    50	    0
	Transforming integrals...
	IWL integrals will be deleted.
	(OO|OO)...
	Presorting SO-basis two-electron integrals.
	Sorting File: SO Ints (nn|nn) nbuckets = 1
	Constructing frozen core operators
	Starting AA/AB first half-transformation.
	Sorting AA/AB half-transformed integrals.
	Starting BB first half-transformation.
	Sorting BB half-transformed integrals.
	First half integral transformation complete.
	Starting AA second half-transformation.
	Starting AB second half-transformation.
	Starting BB second half-transformation.
	Two-electron integral transformation complete.
	(OO|OV)...
	Starting AA second half-transformation.
	Starting AB second half-transformation.
	Starting BB second half-transformation.
	Two-electron integral transformation complete.
	(OO|VV)...
	Starting AA second half-transformation.
	Starting AB second half-transformation.
	Starting BB second half-transformation.
	Two-electron integral transformation complete.
	(OV|OO)...
	Starting AA/AB first half-transformation.
	Sorting AA/AB half-transformed integrals.
	Starting BB first half-transformation.
	Sorting BB half-transformed integrals.
	First half integral transformation complete.
	Starting AA second half-transformation.
	Starting AB second half-transformation.
	Starting BB second half-transformation.
	Two-electron integral transformation complete.
	(OV|OV)...
	Starting AA second half-transformation.
	Starting AB second half-transformation.
	Starting BB second half-transformation.
	Two-electron integral transformation complete.
	(OV|VV)...
	Starting AA second half-transformation.
	Starting AB second half-transformation.
	Starting BB second half-transformation.
	Two-electron integral transformation complete.
	(VV|OO)...
	Starting AA/AB first half-transformation.
	Sorting AA/AB half-transformed integrals.
	Starting BB first half-transformation.
	Sorting BB half-transformed integrals.
	First half integral transformation complete.
	Starting AA second half-transformation.
	Starting AB second half-transformation.
	Starting BB second half-transformation.
	Two-electron integral transformation complete.
	(VV|OV)...
	Starting AA second half-transformation.
	Starting AB second half-transformation.
	Starting BB second half-transformation.
	Two-electron integral transformation complete.
	(VV|VV)...
	Starting AA second half-transformation.
	Starting AB second half-transformation.
	Starting BB second half-transformation.
	Two-electron integral transformation complete.
	Frozen core energy     =   -448.78508431744024

	Size of irrep 0 of <AB|CD> integrals:     33.235 (MW) /    265.882 (MB)
	Size of irrep 1 of <AB|CD> integrals:     23.581 (MW) /    188.646 (MB)
	Size of irrep 2 of <AB|CD> integrals:     28.622 (MW) /    228.980 (MB)
	Size of irrep 3 of <AB|CD> integrals:     28.622 (MW) /    228.980 (MB)
	Total:                                   114.061 (MW) /    912.488 (MB)

	Size of irrep 0 of <ab|cd> integrals:     33.814 (MW) /    270.514 (MB)
	Size of irrep 1 of <ab|cd> integrals:     24.069 (MW) /    192.551 (MB)
	Size of irrep 2 of <ab|cd> integrals:     28.955 (MW) /    231.641 (MB)
	Size of irrep 3 of <ab|cd> integrals:     29.441 (MW) /    235.532 (MB)
	Total:                                   116.280 (MW) /    930.238 (MB)

	Size of irrep 0 of <Ab|Cd> integrals:    138.933 (MW) /   1111.467 (MB)
	Size of irrep 1 of <Ab|Cd> integrals:     95.297 (MW) /    762.373 (MB)
	Size of irrep 2 of <Ab|Cd> integrals:    115.154 (MW) /    921.235 (MB)
	Size of irrep 3 of <Ab|Cd> integrals:    116.122 (MW) /    928.977 (MB)
	Total:                                   465.507 (MW) /   3724.052 (MB)

	Size of irrep 0 of <IA|BC> integrals:      2.958 (MW) /     23.662 (MB)
	Size of irrep 1 of <IA|BC> integrals:      1.573 (MW) /     12.587 (MB)
	Size of irrep 2 of <IA|BC> integrals:      2.215 (MW) /     17.719 (MB)
	Size of irrep 3 of <IA|BC> integrals:      2.215 (MW) /     17.719 (MB)
	Total:                                     8.961 (MW) /     71.687 (MB)

	Size of irrep 0 of <ia|bc> integrals:      2.391 (MW) /     19.130 (MB)
	Size of irrep 1 of <ia|bc> integrals:      1.109 (MW) /      8.870 (MB)
	Size of irrep 2 of <ia|bc> integrals:      1.894 (MW) /     15.153 (MB)
	Size of irrep 3 of <ia|bc> integrals:      1.443 (MW) /     11.547 (MB)
	Total:                                     6.837 (MW) /     54.700 (MB)

	Size of irrep 0 of <Ia|Bc> integrals:      2.982 (MW) /     23.857 (MB)
	Size of irrep 1 of <Ia|Bc> integrals:      1.591 (MW) /     12.730 (MB)
	Size of irrep 2 of <Ia|Bc> integrals:      2.221 (MW) /     17.771 (MB)
	Size of irrep 3 of <Ia|Bc> integrals:      2.252 (MW) /     18.017 (MB)
	Total:                                     9.047 (MW) /     72.375 (MB)

	Size of irrep 0 of <iA|bC> integrals:      2.381 (MW) /     19.048 (MB)
	Size of irrep 1 of <iA|bC> integrals:      1.093 (MW) /      8.747 (MB)
	Size of irrep 2 of <iA|bC> integrals:      1.889 (MW) /     15.109 (MB)
	Size of irrep 3 of <iA|bC> integrals:      1.412 (MW) /     11.293 (MB)
	Total:                                     6.775 (MW) /     54.197 (MB)

	Size of irrep 0 of tIjAb amplitudes:       0.059 (MW) /      0.471 (MB)
	Size of irrep 1 of tIjAb amplitudes:       0.010 (MW) /      0.078 (MB)
	Size of irrep 2 of tIjAb amplitudes:       0.043 (MW) /      0.343 (MB)
	Size of irrep 3 of tIjAb amplitudes:       0.022 (MW) /      0.172 (MB)
	Total:                                     0.133 (MW) /      1.065 (MB)

	Nuclear Rep. energy          =      6.86316369381737
	SCF energy                   =   -459.68970541340173
	One-electron energy          =    -27.90693424544638
	Two-electron (AA) energy     =      2.62266298114849
	Two-electron (BB) energy     =      1.25527938389903
	Two-electron (AB) energy     =      6.26120709062001
	Two-electron energy          =     10.13914945566753
	Reference energy             =   -459.68970541340173

*** tstop() called on n412-045.vsc4.prov at Thu Jan 21 17:54:14 2021
Module time:
	user time   =      53.00 seconds =       0.88 minutes
	system time =      34.42 seconds =       0.57 minutes
	total time  =        156 seconds =       2.60 minutes
Total time:
	user time   =     209.55 seconds =       3.49 minutes
	system time =      45.90 seconds =       0.77 minutes
	total time  =        255 seconds =       4.25 minutes
            **************************
            *                        *
            *        CCENERGY        *
            *                        *
            **************************

    Nuclear Rep. energy (wfn)     =    6.863163693817365
    SCF energy          (wfn)     = -459.689705413401725
    Reference energy    (file100) = -459.689705413401725

    Input parameters:
    -----------------
    Wave function   =     CCSD_T
    Reference wfn   =     UHF
    Brueckner       =     No
    Memory (Mbytes) =     250000.0
    Maxiter         =     50
    R_Convergence   =     1.0e-07
    E_Convergence   =     1.0e-06
    Restart         =     Yes
    DIIS            =     Yes
    AO Basis        =     NONE
    ABCD            =     NEW
    Cache Level     =     2
    Cache Type      =     LRU
    Print Level     =     1
    Num. of threads =     48
    # Amps to Print =     10
    Print MP2 Amps? =     No
    Analyze T2 Amps =     No
    Print Pair Ener =     No
    Local CC        =     No

      * MP2 total energy                      = -459.872971354681454
      * CCSD total energy                     = -459.895042596326562
      * CCSD(T) total energy                     = -459.902525283211560
*** Psi4 exiting successfully. Buy a developer a beer!
