                               Psi4 1.4a3.dev88

  ==> Input File <==

--------------------------------------------------------------------------
# Any line starting with the # character is a comment line
memory 250000 mb
molecule molecule{
0 2
O          0.0000000000        0.0000000000       -0.0574567159
H          0.0000000000        0.0000000000        0.9120314505
}

set {
  reference uhf
  basis aug-cc-pV(Q+d)Z
  scf_type OUT_OF_CORE
  freeze_core true
}

energy('ccsd(t)')
--------------------------------------------------------------------------

    Molecular point group: c2v

    Geometry (in Angstrom), charge = 0, multiplicity = 2:

       Center              X                  Y                   Z               Mass
    ------------   -----------------  -----------------  -----------------  -----------------
         O            0.000000000000     0.000000000000    -0.057465706266    15.994914619570
         H            0.000000000000     0.000000000000     0.912022460134     1.007825032230

  Charge       = 0
  Multiplicity = 2
  Basis Set: AUG-CC-PV(Q+D)Z
    Blend: AUG-CC-PV(Q+D)Z

    Orbital Energies [Eh]
    ---------------------

    Alpha Occupied:

       1A1   -20.638621     2A1    -1.389387     3A1    -0.682946
       1B2    -0.658874     1B1    -0.561770

    Alpha Virtual:

       4A1     0.027524     5A1     0.113311     2B2     0.130333
       2B1     0.137721     6A1     0.161408     3B2     0.212776
       3B1     0.217335     7A1     0.220538     8A1     0.347501
       9A1     0.472077     1A2     0.473415    10A1     0.506540
       4B2     0.544909     4B1     0.555336     5B2     0.621876
       5B1     0.638425    11A1     0.647019     2A2     0.680733
      12A1     0.681428    13A1     0.707510     6B2     0.736333
       6B1     0.758722    14A1     0.783118     7B2     1.147017
       7B1     1.165431    15A1     1.222794     8B2     1.322191
       8B1     1.322201    16A1     1.470550     3A2     1.475218
      17A1     1.483787     9B2     1.533292     9B1     1.554018
      18A1     1.573991     4A2     1.574449    19A1     1.625818
      20A1     1.648556    10B2     1.688930    10B1     1.704641
      11B2     1.721854    11B1     1.722298     5A2     1.865082
      21A1     1.865243    22A1     1.890941    12B2     2.094427
      12B1     2.119827    23A1     2.416763    13B2     2.586859
      13B1     2.633385    14B2     2.952001     6A2     2.960531
      24A1     2.960700    14B1     2.970183    25A1     3.038280
      26A1     3.600882     7A2     3.648850    27A1     3.648850
      15B2     3.753913    15B1     3.796470    16B2     3.904843
      16B1     3.905077    28A1     3.987154    17B2     4.075938
      17B1     4.076246     8A2     4.138136    29A1     4.140991
      18B2     4.150639    18B1     4.188558    30A1     4.195955
       9A2     4.253435    31A1     4.257236    32A1     4.391984
      19B2     4.736032    19B1     4.778369    10A2     4.800523
      33A1     4.801020    34A1     5.157281    20B2     5.546021
      20B1     5.585617    35A1     5.840970    21B2     6.685130
      21B1     6.685131    22B2     7.728737    22B1     7.742086
      36A1     7.745190    11A2     7.746036    37A1     7.833439
      38A1     8.536032    12A2     8.537222    39A1     8.541809
      23B2     8.689757    23B1     8.705130    40A1     9.754547
      24B2     9.806061    24B1     9.832783    41A1    10.593706
      13A2    10.593707    42A1    10.653430    25B2    10.741143
      25B1    10.741329    26B2    10.826423    26B1    10.898045
      43A1    11.171027    14A2    11.171780    27B2    11.499293
      27B1    11.552596    44A1    11.583197    28B2    11.835806
      28B1    11.835935    45A1    11.995726    15A2    11.997110
      46A1    12.209498    29B2    12.697506    29B1    12.750837
      16A2    12.794224    47A1    12.794678    48A1    14.348180
      30B2    14.485210    30B1    14.536527    49A1    16.827305
      50A1    42.973661

    Beta Occupied:

       1A1   -20.598802     2A1    -1.230942     3A1    -0.639046
       1B1    -0.513736

    Beta Virtual:

       4A1     0.028560     1B2     0.060630     5A1     0.115098
       2B1     0.139326     6A1     0.164452     2B2     0.178380
       3B1     0.217344     7A1     0.223481     3B2     0.231656
       8A1     0.355304     1A2     0.481582     9A1     0.481725
      10A1     0.508223     4B1     0.553726     4B2     0.554458
       5B1     0.642128    11A1     0.647610     5B2     0.659800
       2A2     0.681376    12A1     0.681776    13A1     0.718790
       6B1     0.764956    14A1     0.793019     6B2     0.805591
       7B1     1.165357     7B2     1.174550    15A1     1.240082
       8B1     1.329850     8B2     1.329859    16A1     1.487495
       3A2     1.520303    17A1     1.521547     9B2     1.547507
       9B1     1.553875     4A2     1.582846    18A1     1.583309
      19A1     1.634343    20A1     1.650480    10B1     1.707404
      10B2     1.711508    11B1     1.723407    11B2     1.723522
      21A1     1.871170     5A2     1.871498    22A1     1.900928
      12B1     2.123884    12B2     2.128686    23A1     2.424191
      13B1     2.647084    13B2     2.676908    14B2     2.963447
      14B1     2.968626    24A1     2.968825     6A2     2.968855
      25A1     3.045673    26A1     3.617307     7A2     3.662366
      27A1     3.662367    15B2     3.804482    15B1     3.806734
      16B2     3.920561    16B1     3.920565    28A1     4.009223
      17B1     4.107081    17B2     4.107082     8A2     4.156524
      29A1     4.156963    18B2     4.182612    18B1     4.192493
      30A1     4.235249     9A2     4.320362    31A1     4.321131
      32A1     4.398193    19B2     4.783667    19B1     4.787619
      10A2     4.833030    33A1     4.833196    34A1     5.171807
      20B2     5.584571    20B1     5.592925    35A1     5.861151
      21B2     6.686343    21B1     6.686343    22B2     7.733387
      22B1     7.740857    36A1     7.750554    11A2     7.751215
      37A1     7.838428    38A1     8.536576    12A2     8.537589
      39A1     8.547754    23B2     8.694215    23B1     8.704105
      40A1     9.762432    24B2     9.824816    24B1     9.836103
      41A1    10.629194    13A2    10.629194    42A1    10.665202
      25B2    10.769454    25B1    10.769456    26B2    10.918054
      26B1    10.918109    43A1    11.192936    14A2    11.193259
      27B2    11.534584    27B1    11.560707    44A1    11.606350
      28B2    11.892821    28B1    11.892825    45A1    12.038789
      15A2    12.039079    46A1    12.228287    29B2    12.745065
      29B1    12.763433    16A2    12.861325    47A1    12.861382
      48A1    14.363427    30B2    14.531935    30B1    14.548272
      49A1    16.840495    50A1    42.997766

    Final Occupation by Irrep:
             A1    A2    B1    B2
    DOCC [     3,    0,    1,    0 ]
    SOCC [     0,    0,    0,    1 ]

  @UHF Final Energy:   -75.42664538773775

   => Energetics <=

    Nuclear Repulsion Energy =              4.3666522522703382
    One-Electron Energy =                -112.6724717462882381
    Two-Electron Energy =                  32.8791741062801464
    Total Energy =                        -75.4266453877377501

  UHF NO Occupations:
  HONO-2 :    2 A1 1.9992008
  HONO-1 :    3 A1 1.9978526
  HONO-0 :    1 B2 1.0000000
  LUNO+0 :    4 A1 0.0021474
  LUNO+1 :    5 A1 0.0007992
  LUNO+2 :    2 B1 0.0006272
  LUNO+3 :    6 A1 0.0000012

Computation Completed

Properties will be evaluated at   0.000000,   0.000000,   0.000000 [a0]

Properties computed using the SCF density matrix

  Nuclear Dipole Moment: [e a0]
     X:     0.0000      Y:     0.0000      Z:     0.8547

  Electronic Dipole Moment: [e a0]
     X:     0.0000      Y:     0.0000      Z:    -0.1633

  Dipole Moment: [e a0]
     X:     0.0000      Y:     0.0000      Z:     0.6914     Total:     0.6914

  Dipole Moment: [D]
     X:     0.0000      Y:     0.0000      Z:     1.7574     Total:     1.7574

*** tstop() called on l43 at Wed Jan 20 21:15:47 2021
Module time:
	user time   =      13.54 seconds =       0.23 minutes
	system time =       4.03 seconds =       0.07 minutes
	total time  =         10 seconds =       0.17 minutes
Total time:
	user time   =      13.54 seconds =       0.23 minutes
	system time =       4.03 seconds =       0.07 minutes
	total time  =         10 seconds =       0.17 minutes

*** tstart() called on l43
*** at Wed Jan 20 21:15:47 2021

	Wfn Parameters:
	--------------------
	Wavefunction         = CCSD_T
	Number of irreps     = 4
	Number of MOs        = 126
	Number of active MOs = 125
	AO-Basis             = NONE
	Semicanonical        = false
	Reference            = UHF
	Print Level          = 1

	IRREP	# MOs	# FZDC	# DOCC	# SOCC	# VIRT	# FZVR
	-----	-----	------	------	------	------	------
	 A1	   50	    1	    2	    0	    47	    0
	 A2	   16	    0	    0	    0	    16	    0
	 B1	   30	    0	    1	    0	    29	    0
	 B2	   30	    0	    0	    1	    29	    0
	Transforming integrals...
	IWL integrals will be deleted.
	(OO|OO)...
	Presorting SO-basis two-electron integrals.
	Sorting File: SO Ints (nn|nn) nbuckets = 1
	Constructing frozen core operators
	Starting AA/AB first half-transformation.
	Sorting AA/AB half-transformed integrals.
	Starting BB first half-transformation.
	Sorting BB half-transformed integrals.
	First half integral transformation complete.
	Starting AA second half-transformation.
	Starting AB second half-transformation.
	Starting BB second half-transformation.
	Two-electron integral transformation complete.
	(OO|OV)...
	Starting AA second half-transformation.
	Starting AB second half-transformation.
	Starting BB second half-transformation.
	Two-electron integral transformation complete.
	(OO|VV)...
	Starting AA second half-transformation.
	Starting AB second half-transformation.
	Starting BB second half-transformation.
	Two-electron integral transformation complete.
	(OV|OO)...
	Starting AA/AB first half-transformation.
	Sorting AA/AB half-transformed integrals.
	Starting BB first half-transformation.
	Sorting BB half-transformed integrals.
	First half integral transformation complete.
	Starting AA second half-transformation.
	Starting AB second half-transformation.
	Starting BB second half-transformation.
	Two-electron integral transformation complete.
	(OV|OV)...
	Starting AA second half-transformation.
	Starting AB second half-transformation.
	Starting BB second half-transformation.
	Two-electron integral transformation complete.
	(OV|VV)...
	Starting AA second half-transformation.
	Starting AB second half-transformation.
	Starting BB second half-transformation.
	Two-electron integral transformation complete.
	(VV|OO)...
	Starting AA/AB first half-transformation.
	Sorting AA/AB half-transformed integrals.
	Starting BB first half-transformation.
	Sorting BB half-transformed integrals.
	First half integral transformation complete.
	Starting AA second half-transformation.
	Starting AB second half-transformation.
	Starting BB second half-transformation.
	Two-electron integral transformation complete.
	(VV|OV)...
	Starting AA second half-transformation.
	Starting AB second half-transformation.
	Starting BB second half-transformation.
	Two-electron integral transformation complete.
	(VV|VV)...
	Starting AA second half-transformation.
	Starting AB second half-transformation.
	Starting BB second half-transformation.
	Two-electron integral transformation complete.
	Frozen core energy     =    -60.19843555702933

	Size of irrep 0 of <AB|CD> integrals:      4.052 (MW) /     32.417 (MB)
	Size of irrep 1 of <AB|CD> integrals:      2.538 (MW) /     20.301 (MB)
	Size of irrep 2 of <AB|CD> integrals:      3.338 (MW) /     26.703 (MB)
	Size of irrep 3 of <AB|CD> integrals:      3.338 (MW) /     26.703 (MB)
	Total:                                    13.266 (MW) /    106.125 (MB)

	Size of irrep 0 of <ab|cd> integrals:      4.170 (MW) /     33.358 (MB)
	Size of irrep 1 of <ab|cd> integrals:      2.631 (MW) /     21.047 (MB)
	Size of irrep 2 of <ab|cd> integrals:      3.397 (MW) /     27.173 (MB)
	Size of irrep 3 of <ab|cd> integrals:      3.512 (MW) /     28.095 (MB)
	Total:                                    13.709 (MW) /    109.673 (MB)

	Size of irrep 0 of <Ab|Cd> integrals:     17.439 (MW) /    139.512 (MB)
	Size of irrep 1 of <Ab|Cd> integrals:     10.336 (MW) /     82.690 (MB)
	Size of irrep 2 of <Ab|Cd> integrals:     13.469 (MW) /    107.751 (MB)
	Size of irrep 3 of <Ab|Cd> integrals:     13.697 (MW) /    109.579 (MB)
	Total:                                    54.942 (MW) /    439.532 (MB)

	Size of irrep 0 of <IA|BC> integrals:      0.630 (MW) /      5.043 (MB)
	Size of irrep 1 of <IA|BC> integrals:      0.287 (MW) /      2.294 (MB)
	Size of irrep 2 of <IA|BC> integrals:      0.442 (MW) /      3.537 (MB)
	Size of irrep 3 of <IA|BC> integrals:      0.442 (MW) /      3.537 (MB)
	Total:                                     1.801 (MW) /     14.411 (MB)

	Size of irrep 0 of <ia|bc> integrals:      0.517 (MW) /      4.139 (MB)
	Size of irrep 1 of <ia|bc> integrals:      0.201 (MW) /      1.609 (MB)
	Size of irrep 2 of <ia|bc> integrals:      0.387 (MW) /      3.096 (MB)
	Size of irrep 3 of <ia|bc> integrals:      0.285 (MW) /      2.279 (MB)
	Total:                                     1.390 (MW) /     11.123 (MB)

	Size of irrep 0 of <Ia|Bc> integrals:      0.639 (MW) /      5.111 (MB)
	Size of irrep 1 of <Ia|Bc> integrals:      0.293 (MW) /      2.341 (MB)
	Size of irrep 2 of <Ia|Bc> integrals:      0.444 (MW) /      3.553 (MB)
	Size of irrep 3 of <Ia|Bc> integrals:      0.455 (MW) /      3.642 (MB)
	Total:                                     1.831 (MW) /     14.646 (MB)

	Size of irrep 0 of <iA|bC> integrals:      0.514 (MW) /      4.109 (MB)
	Size of irrep 1 of <iA|bC> integrals:      0.196 (MW) /      1.569 (MB)
	Size of irrep 2 of <iA|bC> integrals:      0.385 (MW) /      3.083 (MB)
	Size of irrep 3 of <iA|bC> integrals:      0.274 (MW) /      2.191 (MB)
	Total:                                     1.369 (MW) /     10.952 (MB)

	Size of irrep 0 of tIjAb amplitudes:       0.021 (MW) /      0.167 (MB)
	Size of irrep 1 of tIjAb amplitudes:       0.003 (MW) /      0.026 (MB)
	Size of irrep 2 of tIjAb amplitudes:       0.015 (MW) /      0.117 (MB)
	Size of irrep 3 of tIjAb amplitudes:       0.007 (MW) /      0.059 (MB)
	Total:                                     0.046 (MW) /      0.369 (MB)

	Nuclear Rep. energy          =      4.36665225227034
	SCF energy                   =    -75.42664538773775
	One-electron energy          =    -33.51302453003064
	Two-electron (AA) energy     =      3.69797383630113
	Two-electron (BB) energy     =      1.71964402250120
	Two-electron (AB) energy     =      8.50054458824924
	Two-electron energy          =     13.91816244705156
	Reference energy             =    -75.42664538773808

*** tstop() called on l43 at Wed Jan 20 21:15:59 2021
Module time:
	user time   =       8.62 seconds =       0.14 minutes
	system time =       3.76 seconds =       0.06 minutes
	total time  =         12 seconds =       0.20 minutes
Total time:
	user time   =      22.16 seconds =       0.37 minutes
	system time =       7.79 seconds =       0.13 minutes
	total time  =         22 seconds =       0.37 minutes
            **************************
            *                        *
            *        CCENERGY        *
            *                        *
            **************************

    Nuclear Rep. energy (wfn)     =    4.366652252270338
    SCF energy          (wfn)     =  -75.426645387737750
    Reference energy    (file100) =  -75.426645387738077

    Input parameters:
    -----------------
    Wave function   =     CCSD_T
    Reference wfn   =     UHF
    Brueckner       =     No
    Memory (Mbytes) =     250000.0
    Maxiter         =     50
    R_Convergence   =     1.0e-07
    E_Convergence   =     1.0e-06
    Restart         =     Yes
    DIIS            =     Yes
    AO Basis        =     NONE
    ABCD            =     NEW
    Cache Level     =     2
    Cache Type      =     LRU
    Print Level     =     1
    Num. of threads =     48
    # Amps to Print =     10
    Print MP2 Amps? =     No
    Analyze T2 Amps =     No
    Print Pair Ener =     No
    Local CC        =     No
    SCS-MP2         =     False
    SCSN-MP2        =     False
    SCS-CCSD        =     False

MP2 correlation energy -0.2199839182376200
                Solving CC Amplitude Equations
                ------------------------------
  Iter             Energy              RMS        T1Diag      D1Diag    New D1Diag    D2Diag
  ----     ---------------------    ---------   ----------  ----------  ----------   --------
     0        -0.219983918237620    0.000e+00    0.000000    0.000000    0.000000    0.000000
     1        -0.226408297945543    3.682e-02    0.009853    0.000000    0.000000    0.000000
     2        -0.230469652423338    1.202e-02    0.011207    0.000000    0.000000    0.000000
     3        -0.231425613016129    5.975e-03    0.013072    0.000000    0.000000    0.000000
     4        -0.231344430372091    2.029e-03    0.013439    0.000000    0.000000    0.000000
     5        -0.231359645528911    9.296e-04    0.013539    0.000000    0.000000    0.000000
     6        -0.231376404958429    3.399e-04    0.013526    0.000000    0.000000    0.000000
     7        -0.231376843216007    1.110e-04    0.013509    0.000000    0.000000    0.000000
     8        -0.231377555180940    3.832e-05    0.013506    0.000000    0.000000    0.000000
     9        -0.231377495346306    1.254e-05    0.013506    0.000000    0.000000    0.000000
    10        -0.231377316194660    5.044e-06    0.013506    0.000000    0.000000    0.000000
    11        -0.231377409143727    2.029e-06    0.013506    0.000000    0.000000    0.000000
    12        -0.231377419998859    7.339e-07    0.013506    0.000000    0.000000    0.000000
    13        -0.231377436568932    2.889e-07    0.013506    0.000000    0.000000    0.000000
    14        -0.231377442311030    1.167e-07    0.013506    0.000000    0.000000    0.000000
    15        -0.231377441547303    4.783e-08    0.013506    0.000000    0.000000    0.000000

    Iterations converged.

    Largest TIA Amplitudes:
              3  92        -0.0121831682
              2  63        -0.0118834155
              2  64        -0.0077305882
              3  93        -0.0075234518
              3  95        -0.0073667962
              2  66        -0.0061508135
              3  96        -0.0048286440
              2  67        -0.0043656789
              1   1        -0.0043016625
              3  94        -0.0040807292

    Largest Tia Amplitudes:
              2  63        -0.0091161155
              2  64        -0.0069378528
              0   4        -0.0054366852
              0  13        -0.0053929121
              0  10        -0.0049945481
              2  74         0.0044794427
              1  21         0.0042288974
              2  65        -0.0041982179
              1  18         0.0041665703
              1  10        -0.0036067987

    Largest TIJAB Amplitudes:
      3   2  49  12         0.0092989913
      3   1  95  10         0.0089902961
      2   1  67  10         0.0089600859
      3   2  95  67        -0.0087286668
      3   2  49  13        -0.0085012018

      * MP2 total energy                      =  -75.646629305975694
      * CCSD total energy                     =  -75.658022829285386
      * CCSD(T) total energy                     =  -75.664494028196856
*** Psi4 exiting successfully. Buy a developer a beer!
