                               Psi4 1.4a3.dev88

  ==> Input File <==

--------------------------------------------------------------------------
# Any line starting with the # character is a comment line
memory 250000 mb
molecule molecule{
0 2
O          0.0000000000        0.0000000000       -0.0574567159
H          0.0000000000        0.0000000000        0.9120314505
}

set {
  reference uhf
  basis aug-cc-pV(t+d)Z
  scf_type OUT_OF_CORE
  freeze_core true
}

energy('ccsd(t)')
--------------------------------------------------------------------------

    Molecular point group: c2v

    Geometry (in Angstrom), charge = 0, multiplicity = 2:

       Center              X                  Y                   Z               Mass
    ------------   -----------------  -----------------  -----------------  -----------------
         O            0.000000000000     0.000000000000    -0.057465706266    15.994914619570
         H            0.000000000000     0.000000000000     0.912022460134     1.007825032230

  Charge       = 0
  Multiplicity = 2
  Basis Set: AUG-CC-PV(T+D)Z
    Blend: AUG-CC-PV(T+D)Z

    Orbital Energies [Eh]
    ---------------------

    Alpha Occupied:

       1A1   -20.641075     2A1    -1.390220     3A1    -0.683057
       1B1    -0.658638     1B2    -0.561752

    Alpha Virtual:

       4A1     0.029847     5A1     0.136351     2B1     0.152765
       2B2     0.162091     6A1     0.183967     7A1     0.262574
       3B1     0.268670     3B2     0.275196     8A1     0.426396
       9A1     0.629806     1A2     0.638694    10A1     0.649641
       4B1     0.714406     4B2     0.729101     5B1     0.853690
      11A1     0.875513     5B2     0.880994    12A1     0.926289
       2A2     0.937948    13A1     0.939003     6B1     0.981276
      14A1     0.999701     6B2     1.007894     7B1     1.496326
       7B2     1.515493    15A1     1.696458    16A1     2.029069
       8B1     2.043224     8B2     2.043244     3A2     2.097657
      17A1     2.098240     9B1     2.251964     9B2     2.289026
      18A1     2.320378     4A2     2.321337    19A1     2.444393
      20A1     2.486992    10B1     2.727470    10B2     2.765967
      21A1     3.578914    11B1     4.021292     5A2     4.030325
      22A1     4.030571    11B2     4.078467    12B1     4.298886
      12B2     4.311560    23A1     4.638143    24A1     5.111787
      13B1     5.255858    13B2     5.294608    25A1     6.133025
      14B1     6.431611    14B2     6.431635     6A2     6.593333
      26A1     6.595030    27A1     6.965562     7A2     6.965643
      15B1     7.130593    16B1     7.164734    15B2     7.181584
      16B2     7.227776    28A1     7.369462    29A1     7.689698
      30A1    12.907981

    Beta Occupied:

       1A1   -20.601397     2A1    -1.231915     3A1    -0.639149
       1B2    -0.513693

    Beta Virtual:

       4A1     0.030996     1B1     0.063324     5A1     0.138912
       2B2     0.164294     6A1     0.188181     2B1     0.210214
       7A1     0.265812     3B2     0.275111     3B1     0.289574
       8A1     0.436685     9A1     0.645281     1A2     0.655348
      10A1     0.656562     4B2     0.727292     4B1     0.730999
      11A1     0.879900     5B2     0.887733     5B1     0.912897
      12A1     0.937408     2A2     0.939997    13A1     0.941079
      14A1     1.010388     6B2     1.015809     6B1     1.059727
       7B2     1.515109     7B1     1.520477    15A1     1.715118
      16A1     2.051325     8B2     2.062299     8B1     2.062302
       3A2     2.170668    17A1     2.172308     9B2     2.293412
       9B1     2.298211    18A1     2.337499     4A2     2.337951
      19A1     2.461485    20A1     2.500649    10B1     2.770587
      10B2     2.772619    21A1     3.584412     5A2     4.033001
      22A1     4.033031    11B2     4.096619    11B1     4.133879
      12B1     4.304172    12B2     4.308283    23A1     4.648234
      24A1     5.134494    13B1     5.297461    13B2     5.301932
      25A1     6.157463    14B2     6.485955    14B1     6.485955
       6A2     6.633966    26A1     6.634079     7A2     7.057817
      27A1     7.058037    15B1     7.173552    15B2     7.190259
      16B2     7.248030    16B1     7.253131    28A1     7.386999
      29A1     7.718728    30A1    12.941048

    Final Occupation by Irrep:
             A1    A2    B1    B2
    DOCC [     3,    0,    0,    1 ]
    SOCC [     0,    0,    1,    0 ]

  @UHF Final Energy:   -75.42165109459017

   => Energetics <=

    Nuclear Repulsion Energy =              4.3666522522703382
    One-Electron Energy =                -112.6557122529368939
    Two-Electron Energy =                  32.8674089060763777
    Total Energy =                        -75.4216510945901746

  UHF NO Occupations:
  HONO-2 :    2 A1 1.9992052
  HONO-1 :    3 A1 1.9978724
  HONO-0 :    1 B1 1.0000000
  LUNO+0 :    4 A1 0.0021276
  LUNO+1 :    5 A1 0.0007948
  LUNO+2 :    2 B2 0.0006195
  LUNO+3 :    6 A1 0.0000011

Computation Completed

Properties will be evaluated at   0.000000,   0.000000,   0.000000 [a0]

Properties computed using the SCF density matrix

  Nuclear Dipole Moment: [e a0]
     X:     0.0000      Y:     0.0000      Z:     0.8547

  Electronic Dipole Moment: [e a0]
     X:     0.0000      Y:     0.0000      Z:    -0.1619

  Dipole Moment: [e a0]
     X:     0.0000      Y:     0.0000      Z:     0.6928     Total:     0.6928

  Dipole Moment: [D]
     X:     0.0000      Y:     0.0000      Z:     1.7609     Total:     1.7609

*** tstop() called on n412-040.vsc4.prov at Tue Jan 26 18:23:44 2021
Module time:
	user time   =      26.99 seconds =       0.45 minutes
	system time =       1.02 seconds =       0.02 minutes
	total time  =          2 seconds =       0.03 minutes
Total time:
	user time   =      26.99 seconds =       0.45 minutes
	system time =       1.02 seconds =       0.02 minutes
	total time  =          2 seconds =       0.03 minutes

*** tstart() called on n412-040.vsc4.prov
*** at Tue Jan 26 18:23:44 2021

	Wfn Parameters:
	--------------------
	Wavefunction         = CCSD_T
	Number of irreps     = 4
	Number of MOs        = 69
	Number of active MOs = 68
	AO-Basis             = NONE
	Semicanonical        = false
	Reference            = UHF
	Print Level          = 1

	IRREP	# MOs	# FZDC	# DOCC	# SOCC	# VIRT	# FZVR
	-----	-----	------	------	------	------	------
	 A1	   30	    1	    2	    0	    27	    0
	 A2	   7	    0	    0	    0	    7	    0
	 B1	   16	    0	    0	    1	    15	    0
	 B2	   16	    0	    1	    0	    15	    0
	Transforming integrals...
	IWL integrals will be deleted.
	(OO|OO)...
	Presorting SO-basis two-electron integrals.
	Sorting File: SO Ints (nn|nn) nbuckets = 1
	Constructing frozen core operators
	Starting AA/AB first half-transformation.
	Sorting AA/AB half-transformed integrals.
	Starting BB first half-transformation.
	Sorting BB half-transformed integrals.
	First half integral transformation complete.
	Starting AA second half-transformation.
	Starting AB second half-transformation.
	Starting BB second half-transformation.
	Two-electron integral transformation complete.
	(OO|OV)...
	Starting AA second half-transformation.
	Starting AB second half-transformation.
	Starting BB second half-transformation.
	Two-electron integral transformation complete.
	(OO|VV)...
	Starting AA second half-transformation.
	Starting AB second half-transformation.
	Starting BB second half-transformation.
	Two-electron integral transformation complete.
	(OV|OO)...
	Starting AA/AB first half-transformation.
	Sorting AA/AB half-transformed integrals.
	Starting BB first half-transformation.
	Sorting BB half-transformed integrals.
	First half integral transformation complete.
	Starting AA second half-transformation.
	Starting AB second half-transformation.
	Starting BB second half-transformation.
	Two-electron integral transformation complete.
	(OV|OV)...
	Starting AA second half-transformation.
	Starting AB second half-transformation.
	Starting BB second half-transformation.
	Two-electron integral transformation complete.
	(OV|VV)...
	Starting AA second half-transformation.
	Starting AB second half-transformation.
	Starting BB second half-transformation.
	Two-electron integral transformation complete.
	(VV|OO)...
	Starting AA/AB first half-transformation.
	Sorting AA/AB half-transformed integrals.
	Starting BB first half-transformation.
	Sorting BB half-transformed integrals.
	First half integral transformation complete.
	Starting AA second half-transformation.
	Starting AB second half-transformation.
	Starting BB second half-transformation.
	Two-electron integral transformation complete.
	(VV|OV)...
	Starting AA second half-transformation.
	Starting AB second half-transformation.
	Starting BB second half-transformation.
	Two-electron integral transformation complete.
	(VV|VV)...
	Starting AA second half-transformation.
	Starting AB second half-transformation.
	Starting BB second half-transformation.
	Two-electron integral transformation complete.
	Frozen core energy     =    -60.19722257447793

	Size of irrep 0 of <AB|CD> integrals:      0.339 (MW) /      2.710 (MB)
	Size of irrep 1 of <AB|CD> integrals:      0.171 (MW) /      1.371 (MB)
	Size of irrep 2 of <AB|CD> integrals:      0.260 (MW) /      2.081 (MB)
	Size of irrep 3 of <AB|CD> integrals:      0.260 (MW) /      2.081 (MB)
	Total:                                     1.030 (MW) /      8.243 (MB)

	Size of irrep 0 of <ab|cd> integrals:      0.356 (MW) /      2.851 (MB)
	Size of irrep 1 of <ab|cd> integrals:      0.184 (MW) /      1.472 (MB)
	Size of irrep 2 of <ab|cd> integrals:      0.288 (MW) /      2.307 (MB)
	Size of irrep 3 of <ab|cd> integrals:      0.267 (MW) /      2.138 (MB)
	Total:                                     1.096 (MW) /      8.769 (MB)

	Size of irrep 0 of <Ab|Cd> integrals:      1.545 (MW) /     12.360 (MB)
	Size of irrep 1 of <Ab|Cd> integrals:      0.711 (MW) /      5.685 (MB)
	Size of irrep 2 of <Ab|Cd> integrals:      1.096 (MW) /      8.770 (MB)
	Size of irrep 3 of <Ab|Cd> integrals:      1.055 (MW) /      8.438 (MB)
	Total:                                     4.407 (MW) /     35.253 (MB)

	Size of irrep 0 of <IA|BC> integrals:      0.103 (MW) /      0.825 (MB)
	Size of irrep 1 of <IA|BC> integrals:      0.036 (MW) /      0.291 (MB)
	Size of irrep 2 of <IA|BC> integrals:      0.065 (MW) /      0.522 (MB)
	Size of irrep 3 of <IA|BC> integrals:      0.065 (MW) /      0.522 (MB)
	Total:                                     0.270 (MW) /      2.161 (MB)

	Size of irrep 0 of <ia|bc> integrals:      0.087 (MW) /      0.695 (MB)
	Size of irrep 1 of <ia|bc> integrals:      0.026 (MW) /      0.206 (MB)
	Size of irrep 2 of <ia|bc> integrals:      0.042 (MW) /      0.335 (MB)
	Size of irrep 3 of <ia|bc> integrals:      0.059 (MW) /      0.472 (MB)
	Total:                                     0.213 (MW) /      1.707 (MB)

	Size of irrep 0 of <Ia|Bc> integrals:      0.106 (MW) /      0.845 (MB)
	Size of irrep 1 of <Ia|Bc> integrals:      0.038 (MW) /      0.303 (MB)
	Size of irrep 2 of <Ia|Bc> integrals:      0.069 (MW) /      0.553 (MB)
	Size of irrep 3 of <Ia|Bc> integrals:      0.066 (MW) /      0.526 (MB)
	Total:                                     0.278 (MW) /      2.227 (MB)

	Size of irrep 0 of <iA|bC> integrals:      0.086 (MW) /      0.686 (MB)
	Size of irrep 1 of <iA|bC> integrals:      0.024 (MW) /      0.196 (MB)
	Size of irrep 2 of <iA|bC> integrals:      0.039 (MW) /      0.310 (MB)
	Size of irrep 3 of <iA|bC> integrals:      0.059 (MW) /      0.468 (MB)
	Total:                                     0.207 (MW) /      1.660 (MB)

	Size of irrep 0 of tIjAb amplitudes:       0.006 (MW) /      0.050 (MB)
	Size of irrep 1 of tIjAb amplitudes:       0.001 (MW) /      0.007 (MB)
	Size of irrep 2 of tIjAb amplitudes:       0.002 (MW) /      0.017 (MB)
	Size of irrep 3 of tIjAb amplitudes:       0.004 (MW) /      0.033 (MB)
	Total:                                     0.013 (MW) /      0.106 (MB)

	Nuclear Rep. energy          =      4.36665225227034
	SCF energy                   =    -75.42165109459017
	One-electron energy          =    -33.50373891430914
	Two-electron (AA) energy     =      3.69602804931915
	Two-electron (BB) energy     =      1.71917275182245
	Two-electron (AB) energy     =      8.49745734078501
	Two-electron energy          =     13.91265814192661
	Reference energy             =    -75.42165109459012

*** tstop() called on n412-040.vsc4.prov at Tue Jan 26 18:23:48 2021
Module time:
	user time   =       0.72 seconds =       0.01 minutes
	system time =       0.53 seconds =       0.01 minutes
	total time  =          4 seconds =       0.07 minutes
Total time:
	user time   =      27.71 seconds =       0.46 minutes
	system time =       1.55 seconds =       0.03 minutes
	total time  =          6 seconds =       0.10 minutes
            **************************
            *                        *
            *        CCENERGY        *
            *                        *
            **************************

    Nuclear Rep. energy (wfn)     =    4.366652252270338
    SCF energy          (wfn)     =  -75.421651094590175
    Reference energy    (file100) =  -75.421651094590118

    Input parameters:
    -----------------
    Wave function   =     CCSD_T
    Reference wfn   =     UHF
    Brueckner       =     No
    Memory (Mbytes) =     250000.0
    Maxiter         =     50
    R_Convergence   =     1.0e-07
    E_Convergence   =     1.0e-06
    Restart         =     Yes
    DIIS            =     Yes
    AO Basis        =     NONE
    ABCD            =     NEW
    Cache Level     =     2
    Cache Type      =     LRU
    Print Level     =     1
    Num. of threads =     48
    # Amps to Print =     10
    Print MP2 Amps? =     No
    Analyze T2 Amps =     No
    Print Pair Ener =     No
    Local CC        =     No
    SCS-MP2         =     False
    SCSN-MP2        =     False
    SCS-CCSD        =     False

MP2 correlation energy -0.2046862557986442
                Solving CC Amplitude Equations
                ------------------------------
  Iter             Energy              RMS        T1Diag      D1Diag    New D1Diag    D2Diag
  ----     ---------------------    ---------   ----------  ----------  ----------   --------
     0        -0.204686255798644    0.000e+00    0.000000    0.000000    0.000000    0.000000
     1        -0.213007103878682    3.838e-02    0.010483    0.000000    0.000000    0.000000
     2        -0.217083271515801    1.227e-02    0.011880    0.000000    0.000000    0.000000
     3        -0.218087732607994    6.152e-03    0.013831    0.000000    0.000000    0.000000
     4        -0.218008545224607    2.094e-03    0.014220    0.000000    0.000000    0.000000
     5        -0.218027066557114    9.224e-04    0.014303    0.000000    0.000000    0.000000
     6        -0.218044470900928    3.437e-04    0.014288    0.000000    0.000000    0.000000
     7        -0.218044555121875    1.081e-04    0.014270    0.000000    0.000000    0.000000
     8        -0.218045297234157    3.580e-05    0.014267    0.000000    0.000000    0.000000
     9        -0.218045153574266    1.222e-05    0.014267    0.000000    0.000000    0.000000
    10        -0.218045064212336    4.971e-06    0.014267    0.000000    0.000000    0.000000
    11        -0.218045144159891    1.935e-06    0.014268    0.000000    0.000000    0.000000
    12        -0.218045161136948    7.472e-07    0.014268    0.000000    0.000000    0.000000
    13        -0.218045177805211    2.942e-07    0.014268    0.000000    0.000000    0.000000
    14        -0.218045183929357    1.150e-07    0.014268    0.000000    0.000000    0.000000
    15        -0.218045183267938    4.709e-08    0.014268    0.000000    0.000000    0.000000

    Iterations converged.

    Largest TIA Amplitudes:
              3  49        -0.0142398717
              2  34        -0.0140307533
              3  50        -0.0092561272
              2  35        -0.0088617553
              2  37        -0.0058612202
              1   3        -0.0057418379
              1   1         0.0055660477
              3  52        -0.0049490219
              0   2        -0.0046881487
              2  36        -0.0037516942

    Largest Tia Amplitudes:
              2  50        -0.0115895919
              2  51        -0.0085602536
              0  13        -0.0054316030
              0   6        -0.0053171305
              2  59         0.0046728972
              0   4         0.0046192518
              1  19         0.0040226627
              1   3        -0.0039797464
              0  10         0.0039435041
              2  52        -0.0038966516

    Largest TIJAB Amplitudes:
      3   2  29  13         0.0140175158
      3   2  52  37        -0.0118102132
      3   1  51   6         0.0099773273
      3   2  53  37        -0.0099468673
      2   1  37   8        -0.0098230165
      3   1  52   8        -0.0090429698
      3   2  27  13         0.0090298192
      2   1  36   5         0.0090151952
      3   2  49  37        -0.0086719309
      2   1  37   4        -0.0080218629

    Largest Tijab Amplitudes:
      2   1  52   5         0.0110345919
      2   1  55   5         0.0084294843
      2   1  53   8        -0.0081538297
      2   0  34  27        -0.0079133587
      2   0  34  29         0.0077894363
      2   1  54   4        -0.0077407598
      2   1  50   4        -0.0067880710
      2   1  54   8        -0.0066557826
      1   0  37  34         0.0066553805
      2   1  50   1         0.0064540742

    Largest TIjAb Amplitudes:
      1   1   4   4        -0.0205356295
      3   2  52  53        -0.0192562947
      3   2  53  54        -0.0185295444
      3   2  52  54        -0.0181729759
      2   0   5  34         0.0169450837
      3   0  29  34         0.0165937292
      2   0  13  34        -0.0163113214
      3   2  53  53        -0.0159497848
      1   1   8   8        -0.0157600023
      2   2  37  53        -0.0148200451

    SCF energy       (wfn)                    =  -75.421651094590175
    Reference energy (file100)                =  -75.421651094590118

    Opposite-spin MP2 correlation energy      =   -0.156822211552551
    Same-spin MP2 correlation energy          =   -0.047864044246093
    Singles MP2 correlation energy            =   -0.000000000000000
    MP2 correlation energy                    =   -0.204686255798644
      * MP2 total energy                      =  -75.626337350388766
      * CCSD total energy                     =  -75.639696277858050
      * CCSD(T) total energy                     =  -75.645573436478500
*** Psi4 exiting successfully. Buy a developer a beer!
