                               Psi4 1.2a1.dev939

  ==> Input File <==

--------------------------------------------------------------------------
# Any line starting with the # character is a comment line

memory 32000 mb

molecule molecule {
-1 1
C          0.0000000000        0.0000000000        0.6411129114
N          0.0000000000        0.0000000000       -0.5497659819
}

set {
  reference rhf
  basis aug-cc-pv(D+d)z
  scf_type OUT_OF_CORE
  freeze_core true
}

energy('ccsd')
--------------------------------------------------------------------------

    Molecular point group: c2v

    Geometry (in Angstrom), charge = -1, multiplicity = 1:

       Center              X                  Y                   Z               Mass
    ------------   -----------------  -----------------  -----------------  -----------------
           C          0.000000000000     0.000000000000     0.641307457362    12.000000000000
           N          0.000000000000     0.000000000000    -0.549571435938    14.003074004780

  Charge       = -1
  Multiplicity = 1
  Basis Set: AUG-CC-PV(D+D)Z
    Blend: AUG-CC-PV(D+D)Z

    Orbital Energies (a.u.)
    -----------------------

    Doubly Occupied:

       1A1   -15.303096     2A1   -10.986391     3A1    -0.923686
       4A1    -0.345947     5A1    -0.193201     1B1    -0.189561
       1B2    -0.189561

  @RHF Final Energy:   -92.32261991404992

   => Energetics <=

    Nuclear Repulsion Energy =             18.6630587592260575
    One-Electron Energy =                -165.7084708672321653
    Two-Electron Energy =                  54.7227921939561739
    Total Energy =                        -92.3226199140499375
      * MP2 total energy                      =  -92.620233582653285
      * CCSD total energy                     =  -92.625126125445419
*** Psi4 exiting successfully. Buy a developer a beer!
