                               Psi4 1.2a1.dev938

  ==> Input File <==

--------------------------------------------------------------------------
# Any line starting with the # character is a comment line
memory 250000 mb
molecule molecule{
1 4
O          0.0000000000        0.0000000000        0.0000000000
}

set {
  reference uhf
  basis aug-cc-pv(5+d)z
  scf_type OUT_OF_CORE
  freeze_core true
}

energy('ccsd')
--------------------------------------------------------------------------

    Molecular point group: d2h
    Geometry (in Angstrom), charge = 1, multiplicity = 4:

       Center              X                  Y                   Z               Mass
    ------------   -----------------  -----------------  -----------------  -----------------
           O          0.000000000000     0.000000000000     0.000000000000    15.994914619560

  Charge       = 1
  Multiplicity = 4
  Basis Set: AUG-CC-PV(5+D)Z
    Blend: AUG-CC-PV(5+D)Z

    Orbital Energies (a.u.)
    -----------------------

    Alpha Occupied:

       1Ag   -21.410957     2Ag    -2.071593     1B1u   -1.330793
       1B3u   -1.330793     1B2u   -1.330793

    Alpha Virtual:

       3Ag    -0.139171     2B2u   -0.092780     2B1u   -0.092780
       2B3u   -0.092780     4Ag     0.119338     5Ag     0.119338
       1B2g    0.119338     1B3g    0.119338     1B1g    0.119338
       3B1u    0.175453     3B2u    0.175453     3B3u    0.175453
       6Ag     0.360669     1Au     0.650365     4B3u    0.650365
       4B2u    0.650365     5B3u    0.650365     4B1u    0.650365
       5B2u    0.650365     5B1u    0.650365     2B2g    0.817084
       7Ag     0.817084     2B1g    0.817084     8Ag     0.817084
       2B3g    0.817084     6B1u    1.157390     6B2u    1.157390
       6B3u    1.157390     3B2g    2.189458     9Ag     2.189458
       3B3g    2.189458    10Ag     2.189458     3B1g    2.189458
      11Ag     2.189458     4B2g    2.189458     4B1g    2.189458
       4B3g    2.189458    12Ag     2.308159     7B2u    2.387314
       7B3u    2.387314     7B1u    2.387314     8B1u    2.387314
       8B3u    2.387314     8B2u    2.387314     2Au     2.387314
       5B3g    2.647345    13Ag     2.647345     5B2g    2.647345
       5B1g    2.647345    14Ag     2.647345     9B1u    4.223517
       9B2u    4.223517     9B3u    4.223517    10B1u    5.661903
      10B2u    5.661903    11B2u    5.661903     3Au     5.661903
      10B3u    5.661903    12B2u    5.661903    11B1u    5.661903
      11B3u    5.661903    12B1u    5.661903    12B3u    5.661903
       4Au     5.661903     6B1g    6.479813    15Ag     6.479813
       6B3g    6.479813     6B2g    6.479813     7B2g    6.479813
      16Ag     6.479813     7B1g    6.479813     7B3g    6.479813
      17Ag     6.479813    13B3u    6.744323    13B1u    6.744323
      13B2u    6.744323    14B3u    6.744323    14B1u    6.744323
       5Au     6.744323    14B2u    6.744323     8B3g    7.624442
       8B2g    7.624442    18Ag     7.624442     8B1g    7.624442
      19Ag     7.624442    20Ag     9.440589    15B2u   14.939550
      15B1u   14.939550    15B3u   14.939550    16B2u   15.557162
      16B3u   15.557162    16B1u   15.557162    17B3u   15.557162
      17B2u   15.557162     6Au    15.557162    18B3u   15.557162
      18B2u   15.557162    17B1u   15.557162    18B1u   15.557162
       7Au    15.557162     9B1g   18.353692    21Ag    18.353692
       9B2g   18.353692    10B2g   18.353692    22Ag    18.353692
       9B3g   18.353692    23Ag    18.353692    10B1g   18.353692
      10B3g   18.353692    19B1u   18.424154    19B2u   18.424154
      20B1u   18.424154    19B3u   18.424154     8Au    18.424154
      20B2u   18.424154    20B3u   18.424154    11B3g   21.273793
      24Ag    21.273793    11B1g   21.273793    11B2g   21.273793
      25Ag    21.273793    26Ag    59.040099

    Beta Occupied:

       1Ag   -21.278049     2Ag    -1.530711

    Beta Virtual:

       1B2u   -0.382350     1B3u   -0.382350     1B1u   -0.382350
       3Ag    -0.123196     2B3u   -0.072479     2B2u   -0.072479
       2B1u   -0.072479     4Ag     0.129966     5Ag     0.129966
       1B1g    0.129966     1B2g    0.129966     1B3g    0.129966
       3B1u    0.241003     3B3u    0.241003     3B2u    0.241003
       6Ag     0.412761     4B3u    0.655723     4B1u    0.655723
       1Au     0.655723     5B3u    0.655723     4B2u    0.655723
       5B1u    0.655723     5B2u    0.655723     7Ag     0.893003
       2B2g    0.893003     2B1g    0.893003     2B3g    0.893003
       8Ag     0.893003     6B1u    1.291415     6B2u    1.291415
       6B3u    1.291415     9Ag     2.200148     3B2g    2.200148
      10Ag     2.200148    11Ag     2.200148     4B2g    2.200148
       3B1g    2.200148     4B1g    2.200148     3B3g    2.200148
       4B3g    2.200148    12Ag     2.426225     7B3u    2.431138
       7B2u    2.431138     7B1u    2.431138     8B2u    2.431138
       2Au     2.431138     8B1u    2.431138     8B3u    2.431138
       5B3g    2.812845     5B2g    2.812845    13Ag     2.812845
       5B1g    2.812845    14Ag     2.812845     9B2u    4.383853
       9B1u    4.383853     9B3u    4.383853    10B2u    5.681528
      11B2u    5.681528    12B2u    5.681528    10B1u    5.681528
       3Au     5.681528    10B3u    5.681528    11B1u    5.681528
      11B3u    5.681528    12B1u    5.681528    12B3u    5.681528
       4Au     5.681528    15Ag     6.529370     6B1g    6.529370
       6B2g    6.529370    16Ag     6.529370     7B1g    6.529370
       7B2g    6.529370     6B3g    6.529370     7B3g    6.529370
      17Ag     6.529370    13B3u    6.850807    13B1u    6.850807
      13B2u    6.850807    14B3u    6.850807    14B1u    6.850807
      14B2u    6.850807     5Au     6.850807     8B3g    7.801088
      18Ag     7.801088     8B2g    7.801088     8B1g    7.801088
      19Ag     7.801088    20Ag     9.569344    15B2u   15.059889
      15B1u   15.059889    15B3u   15.059889    16B2u   15.611192
      16B1u   15.611192    16B3u   15.611192    17B3u   15.611192
      17B2u   15.611192     6Au    15.611192    18B3u   15.611192
      18B2u   15.611192    17B1u   15.611192    18B1u   15.611192
       7Au    15.611192     9B1g   18.442487     9B2g   18.442487
      21Ag    18.442487    10B2g   18.442487    22Ag    18.442487
      23Ag    18.442487     9B3g   18.442487    10B3g   18.442487
      10B1g   18.442487    19B1u   18.542224    19B2u   18.542224
      20B1u   18.542224    19B3u   18.542224     8Au    18.542224
      20B2u   18.542224    20B3u   18.542224    11B3g   21.395269
      11B1g   21.395269    24Ag    21.395269    11B2g   21.395269
      25Ag    21.395269    26Ag    59.093311

    Final Occupation by Irrep:
             Ag   B1g   B2g   B3g    Au   B1u   B2u   B3u
    DOCC [     2,    0,    0,    0,    0,    0,    0,    0 ]
    SOCC [     0,    0,    0,    0,    0,    1,    1,    1 ]

  Energy converged.

  @UHF Final Energy:   -74.37697752624528

   => Energetics <=

    Nuclear Repulsion Energy =              0.0000000000000000
    One-Electron Energy =                 -98.4702666065527694
    Two-Electron Energy =                  24.0932890803074784
    PCM Polarization Energy =               0.0000000000000000
    Total Energy =                        -74.3769775262452981

    Alert: EFP and PCM quantities not currently incorporated into SCF psivars.
  UHF NO Occupations:
  HONO-2 :    1B1u 1.0000000
  HONO-1 :    1B2u 1.0000000
  HONO-0 :    1B3u 1.0000000
  LUNO+0 :    3 Ag 0.0027791
  LUNO+1 :    4 Ag 0.0000044
  LUNO+2 :    5 Ag 0.0000000
  LUNO+3 :    6 Ag 0.0000000

Properties will be evaluated at   0.000000,   0.000000,   0.000000 Bohr

Properties computed using the SCF density matrix

  Nuclear Dipole Moment: (a.u.)
     X:     0.0000      Y:     0.0000      Z:     0.0000

  Electronic Dipole Moment: (a.u.)
     X:     0.0000      Y:     0.0000      Z:     0.0000

  Dipole Moment: (a.u.)
     X:     0.0000      Y:     0.0000      Z:     0.0000     Total:     0.0000

  Dipole Moment: (Debye)
     X:     0.0000      Y:     0.0000      Z:     0.0000     Total:     0.0000

*** tstop() called on cqc05 at Fri Aug 21 06:50:38 2020
Module time:
	user time   =       5.78 seconds =       0.10 minutes
	system time =       0.15 seconds =       0.00 minutes
	total time  =          5 seconds =       0.08 minutes
Total time:
	user time   =       5.78 seconds =       0.10 minutes
	system time =       0.15 seconds =       0.00 minutes
	total time  =          5 seconds =       0.08 minutes

*** tstart() called on cqc05
*** at Fri Aug 21 06:50:38 2020

	Wfn Parameters:
	--------------------
	Wavefunction         = CCSD
	Number of irreps     = 8
	Number of MOs        = 127
	Number of active MOs = 126
	AO-Basis             = NONE
	Semicanonical        = false
	Reference            = UHF
	Print Level          = 1

	IRREP	# MOs	# FZDC	# DOCC	# SOCC	# VIRT	# FZVR
	-----	-----	------	------	------	------	------
	 Ag	   26	    1	    1	    0	    24	    0
	 B1g	   11	    0	    0	    0	    11	    0
	 B2g	   11	    0	    0	    0	    11	    0
	 B3g	   11	    0	    0	    0	    11	    0
	 Au	   8	    0	    0	    0	    8	    0
	 B1u	   20	    0	    0	    1	    19	    0
	 B2u	   20	    0	    0	    1	    19	    0
	 B3u	   20	    0	    0	    1	    19	    0
	Transforming integrals...
	IWL integrals will be deleted.
	(OO|OO)...
	Presorting SO-basis two-electron integrals.
	Sorting File: SO Ints (nn|nn) nbuckets = 1
	Transforming the one-electron integrals and constructing Fock matrices
	Starting AA/AB first half-transformation.
	Sorting AA/AB half-transformed integrals.
	Starting BB first half-transformation.
	Sorting BB half-transformed integrals.
	First half integral transformation complete.
	Starting AA second half-transformation.
	Starting AB second half-transformation.
	Starting BB second half-transformation.
	Two-electron integral transformation complete.
	(OO|OV)...
	Starting AA second half-transformation.
	Starting AB second half-transformation.
	Starting BB second half-transformation.
	Two-electron integral transformation complete.
	(OO|VV)...
	Starting AA second half-transformation.
	Starting AB second half-transformation.
	Starting BB second half-transformation.
	Two-electron integral transformation complete.
	(OV|OO)...
	Starting AA/AB first half-transformation.
	Sorting AA/AB half-transformed integrals.
	Starting BB first half-transformation.
	Sorting BB half-transformed integrals.
	First half integral transformation complete.
	Starting AA second half-transformation.
	Starting AB second half-transformation.
	Starting BB second half-transformation.
	Two-electron integral transformation complete.
	(OV|OV)...
	Starting AA second half-transformation.
	Starting AB second half-transformation.
	Starting BB second half-transformation.
	Two-electron integral transformation complete.
	(OV|VV)...
	Starting AA second half-transformation.
	Starting AB second half-transformation.
	Starting BB second half-transformation.
	Two-electron integral transformation complete.
	(VV|OO)...
	Starting AA/AB first half-transformation.
	Sorting AA/AB half-transformed integrals.
	Starting BB first half-transformation.
	Sorting BB half-transformed integrals.
	First half integral transformation complete.
	Starting AA second half-transformation.
	Starting AB second half-transformation.
	Starting BB second half-transformation.
	Two-electron integral transformation complete.
	(VV|OV)...
	Starting AA second half-transformation.
	Starting AB second half-transformation.
	Starting BB second half-transformation.
	Two-electron integral transformation complete.
	(VV|VV)...
	Starting AA second half-transformation.
	Starting AB second half-transformation.
	Starting BB second half-transformation.
	Two-electron integral transformation complete.
	Frozen core energy     =    -59.10684496808942

	Size of irrep 0 of <AB|CD> integrals:      0.964 (MW) /      7.715 (MB)
	Size of irrep 1 of <AB|CD> integrals:      0.806 (MW) /      6.451 (MB)
	Size of irrep 2 of <AB|CD> integrals:      0.806 (MW) /      6.451 (MB)
	Size of irrep 3 of <AB|CD> integrals:      0.806 (MW) /      6.451 (MB)
	Size of irrep 4 of <AB|CD> integrals:      0.671 (MW) /      5.366 (MB)
	Size of irrep 5 of <AB|CD> integrals:      0.925 (MW) /      7.404 (MB)
	Size of irrep 6 of <AB|CD> integrals:      0.925 (MW) /      7.404 (MB)
	Size of irrep 7 of <AB|CD> integrals:      0.925 (MW) /      7.404 (MB)
	Total:                                     6.831 (MW) /     54.645 (MB)

	Size of irrep 0 of <ab|cd> integrals:      1.080 (MW) /      8.636 (MB)
	Size of irrep 1 of <ab|cd> integrals:      0.893 (MW) /      7.144 (MB)
	Size of irrep 2 of <ab|cd> integrals:      0.893 (MW) /      7.144 (MB)
	Size of irrep 3 of <ab|cd> integrals:      0.893 (MW) /      7.144 (MB)
	Size of irrep 4 of <ab|cd> integrals:      0.726 (MW) /      5.807 (MB)
	Size of irrep 5 of <ab|cd> integrals:      1.016 (MW) /      8.129 (MB)
	Size of irrep 6 of <ab|cd> integrals:      1.016 (MW) /      8.129 (MB)
	Size of irrep 7 of <ab|cd> integrals:      1.016 (MW) /      8.129 (MB)
	Total:                                     7.533 (MW) /     60.262 (MB)

	Size of irrep 0 of <Ab|Cd> integrals:      4.592 (MW) /     36.740 (MB)
	Size of irrep 1 of <Ab|Cd> integrals:      3.393 (MW) /     27.144 (MB)
	Size of irrep 2 of <Ab|Cd> integrals:      3.393 (MW) /     27.144 (MB)
	Size of irrep 3 of <Ab|Cd> integrals:      3.393 (MW) /     27.144 (MB)
	Size of irrep 4 of <Ab|Cd> integrals:      2.792 (MW) /     22.338 (MB)
	Size of irrep 5 of <Ab|Cd> integrals:      3.881 (MW) /     31.047 (MB)
	Size of irrep 6 of <Ab|Cd> integrals:      3.881 (MW) /     31.047 (MB)
	Size of irrep 7 of <Ab|Cd> integrals:      3.881 (MW) /     31.047 (MB)
	Total:                                    29.206 (MW) /    233.650 (MB)

	Size of irrep 0 of <IA|BC> integrals:      0.169 (MW) /      1.352 (MB)
	Size of irrep 1 of <IA|BC> integrals:      0.102 (MW) /      0.819 (MB)
	Size of irrep 2 of <IA|BC> integrals:      0.102 (MW) /      0.819 (MB)
	Size of irrep 3 of <IA|BC> integrals:      0.102 (MW) /      0.819 (MB)
	Size of irrep 4 of <IA|BC> integrals:      0.067 (MW) /      0.537 (MB)
	Size of irrep 5 of <IA|BC> integrals:      0.125 (MW) /      1.000 (MB)
	Size of irrep 6 of <IA|BC> integrals:      0.125 (MW) /      1.000 (MB)
	Size of irrep 7 of <IA|BC> integrals:      0.125 (MW) /      1.000 (MB)
	Total:                                     0.918 (MW) /      7.347 (MB)

	Size of irrep 0 of <ia|bc> integrals:      0.053 (MW) /      0.423 (MB)
	Size of irrep 1 of <ia|bc> integrals:      0.021 (MW) /      0.166 (MB)
	Size of irrep 2 of <ia|bc> integrals:      0.021 (MW) /      0.166 (MB)
	Size of irrep 3 of <ia|bc> integrals:      0.021 (MW) /      0.166 (MB)
	Size of irrep 4 of <ia|bc> integrals:      0.014 (MW) /      0.109 (MB)
	Size of irrep 5 of <ia|bc> integrals:      0.040 (MW) /      0.323 (MB)
	Size of irrep 6 of <ia|bc> integrals:      0.040 (MW) /      0.323 (MB)
	Size of irrep 7 of <ia|bc> integrals:      0.040 (MW) /      0.323 (MB)
	Total:                                     0.250 (MW) /      1.999 (MB)

	Size of irrep 0 of <Ia|Bc> integrals:      0.180 (MW) /      1.440 (MB)
	Size of irrep 1 of <Ia|Bc> integrals:      0.109 (MW) /      0.869 (MB)
	Size of irrep 2 of <Ia|Bc> integrals:      0.109 (MW) /      0.869 (MB)
	Size of irrep 3 of <Ia|Bc> integrals:      0.109 (MW) /      0.869 (MB)
	Size of irrep 4 of <Ia|Bc> integrals:      0.069 (MW) /      0.548 (MB)
	Size of irrep 5 of <Ia|Bc> integrals:      0.130 (MW) /      1.040 (MB)
	Size of irrep 6 of <Ia|Bc> integrals:      0.130 (MW) /      1.040 (MB)
	Size of irrep 7 of <Ia|Bc> integrals:      0.130 (MW) /      1.040 (MB)
	Total:                                     0.965 (MW) /      7.717 (MB)

	Size of irrep 0 of <iA|bC> integrals:      0.051 (MW) /      0.411 (MB)
	Size of irrep 1 of <iA|bC> integrals:      0.020 (MW) /      0.162 (MB)
	Size of irrep 2 of <iA|bC> integrals:      0.020 (MW) /      0.162 (MB)
	Size of irrep 3 of <iA|bC> integrals:      0.020 (MW) /      0.162 (MB)
	Size of irrep 4 of <iA|bC> integrals:      0.013 (MW) /      0.107 (MB)
	Size of irrep 5 of <iA|bC> integrals:      0.037 (MW) /      0.299 (MB)
	Size of irrep 6 of <iA|bC> integrals:      0.037 (MW) /      0.299 (MB)
	Size of irrep 7 of <iA|bC> integrals:      0.037 (MW) /      0.299 (MB)
	Total:                                     0.238 (MW) /      1.903 (MB)

	Size of irrep 0 of tIjAb amplitudes:       0.002 (MW) /      0.017 (MB)
	Size of irrep 1 of tIjAb amplitudes:       0.000 (MW) /      0.000 (MB)
	Size of irrep 2 of tIjAb amplitudes:       0.000 (MW) /      0.000 (MB)
	Size of irrep 3 of tIjAb amplitudes:       0.000 (MW) /      0.000 (MB)
	Size of irrep 4 of tIjAb amplitudes:       0.000 (MW) /      0.000 (MB)
	Size of irrep 5 of tIjAb amplitudes:       0.002 (MW) /      0.016 (MB)
	Size of irrep 6 of tIjAb amplitudes:       0.002 (MW) /      0.016 (MB)
	Size of irrep 7 of tIjAb amplitudes:       0.002 (MW) /      0.016 (MB)
	Total:                                     0.008 (MW) /      0.064 (MB)

	Nuclear Rep. energy          =      0.00000000000000
	SCF energy                   =    -74.37697752624528
	One-electron energy          =    -22.94558191683329
	Two-electron (AA) energy     =      4.36770607239361
	Two-electron (BB) energy     =      0.00000000000000
	Two-electron (AB) energy     =      3.30774328628374
	Two-electron energy          =      7.67544935867735
	Reference energy             =    -74.37697752624535

*** tstop() called on cqc05 at Fri Aug 21 06:50:42 2020
Module time:
	user time   =       2.31 seconds =       0.04 minutes
	system time =       1.36 seconds =       0.02 minutes
	total time  =          4 seconds =       0.07 minutes
Total time:
	user time   =       8.09 seconds =       0.13 minutes
	system time =       1.51 seconds =       0.03 minutes
	total time  =          9 seconds =       0.15 minutes

*** tstart() called on cqc05
*** at Fri Aug 21 06:50:42 2020

            **************************
            *                        *
            *        CCENERGY        *
            *                        *
            **************************

    Nuclear Rep. energy (wfn)     =    0.000000000000000
    SCF energy          (wfn)     =  -74.376977526245284
    Reference energy    (file100) =  -74.376977526245355

    Input parameters:
    -----------------
    Wave function   =     CCSD
    Reference wfn   =     UHF
    Brueckner       =     No
    Memory (Mbytes) =     250000.0
    Maxiter         =     50
    R_Convergence   =     1.0e-07
    E_Convergence   =     1.0e-06
    Restart         =     Yes
    DIIS            =     Yes
    AO Basis        =     NONE
    ABCD            =     NEW
    Cache Level     =     2
    Cache Type      =     LRU
    Print Level     =     1
    Num. of threads =     4
    # Amps to Print =     10
    Print MP2 Amps? =     No
    Analyze T2 Amps =     No
    Print Pair Ener =     No
    Local CC        =     No
    SCS-MP2         =     False
    SCSN-MP2        =     False
    SCS-CCSD        =     False

MP2 correlation energy -0.1108681499213174
                Solving CC Amplitude Equations
                ------------------------------
  Iter             Energy              RMS        T1Diag      D1Diag    New D1Diag    D2Diag
  ----     ---------------------    ---------   ----------  ----------  ----------   --------
     0        -0.110868149921317    0.000e+00    0.000000    0.000000    0.000000    0.000000
     1        -0.120671857762888    2.296e-02    0.003520    0.000000    0.000000    0.000000
     2        -0.123592389057919    7.855e-03    0.005548    0.000000    0.000000    0.000000
     3        -0.123659489370372    1.644e-03    0.006109    0.000000    0.000000    0.000000
     4        -0.123655201716098    3.770e-04    0.006161    0.000000    0.000000    0.000000
     5        -0.123656634259356    9.825e-05    0.006157    0.000000    0.000000    0.000000
     6        -0.123657765830982    1.492e-05    0.006154    0.000000    0.000000    0.000000
     7        -0.123657768567193    2.308e-06    0.006154    0.000000    0.000000    0.000000

      * MP2 total energy                      =  -74.487845676166671
      * CCSD total energy                     =  -74.500635271198448
*** Psi4 exiting successfully. Buy a developer a beer!
