                               Psi4 1.2a1.dev938

  ==> Input File <==

--------------------------------------------------------------------------
# Any line starting with the # character is a comment line
memory 250000 mb
molecule molecule{
1 4
O          0.0000000000        0.0000000000        0.0000000000
}

set {
  reference uhf
  basis aug-cc-pv(q+d)z
  scf_type OUT_OF_CORE
  freeze_core true
}

energy('ccsd')
--------------------------------------------------------------------------

    Molecular point group: d2h
    Geometry (in Angstrom), charge = 1, multiplicity = 4:

       Center              X                  Y                   Z               Mass
    ------------   -----------------  -----------------  -----------------  -----------------
           O          0.000000000000     0.000000000000     0.000000000000    15.994914619560

  Charge       = 1
  Multiplicity = 4
  Basis Set: AUG-CC-PV(Q+D)Z
    Blend: AUG-CC-PV(Q+D)Z

    Orbital Energies (a.u.)
    -----------------------

    Alpha Occupied:

       1Ag   -21.411735     2Ag    -2.071751     1B3u   -1.330587
       1B2u   -1.330587     1B1u   -1.330587

    Alpha Virtual:

       3Ag    -0.134030     2B1u   -0.084690     2B3u   -0.084690
       2B2u   -0.084690     4Ag     0.165974     1B3g    0.165974
       1B2g    0.165974     5Ag     0.165974     1B1g    0.165974
       3B1u    0.323499     3B2u    0.323499     3B3u    0.323499
       6Ag     0.478933     4B3u    0.957406     4B2u    0.957406
       4B1u    0.957406     5B3u    0.957406     5B1u    0.957406
       1Au     0.957406     5B2u    0.957406     2B1g    1.038526
       2B3g    1.038526     7Ag     1.038526     2B2g    1.038526
       8Ag     1.038526     6B1u    2.135693     6B2u    2.135693
       6B3u    2.135693     3B1g    3.158282     9Ag     3.158282
      10Ag     3.158282     3B2g    3.158282     3B3g    3.158282
      11Ag     3.158282     4B2g    3.158282     4B1g    3.158282
       4B3g    3.158282    12Ag     3.307371     7B2u    3.482070
       7B3u    3.482070     8B2u    3.482070     8B3u    3.482070
       7B1u    3.482070     2Au     3.482070     8B1u    3.482070
      13Ag     3.672517     5B1g    3.672517     5B2g    3.672517
       5B3g    3.672517    14Ag     3.672517     9B1u    9.641396
       9B2u    9.641396     9B3u    9.641396    15Ag     9.946422
      16Ag     9.946422     6B1g    9.946422     6B2g    9.946422
      17Ag     9.946422     7B1g    9.946422     7B2g    9.946422
       6B3g    9.946422     7B3g    9.946422    10B2u   11.116103
      10B3u   11.116103     3Au    11.116103    10B1u   11.116103
      11B2u   11.116103    11B3u   11.116103    11B1u   11.116103
       8B1g   11.904713     8B3g   11.904713    18Ag    11.904713
       8B2g   11.904713    19Ag    11.904713    20Ag    39.729317

    Beta Occupied:

       1Ag   -21.278186     2Ag    -1.530941

    Beta Virtual:

       1B2u   -0.382380     1B1u   -0.382380     1B3u   -0.382380
       3Ag    -0.116542     2B3u   -0.058809     2B1u   -0.058809
       2B2u   -0.058809     4Ag     0.181401     1B1g    0.181401
       5Ag     0.181401     1B3g    0.181401     1B2g    0.181401
       3B1u    0.424131     3B2u    0.424131     3B3u    0.424131
       6Ag     0.545670     4B1u    0.969559     4B3u    0.969559
       4B2u    0.969559     1Au     0.969559     5B1u    0.969559
       5B3u    0.969559     5B2u    0.969559     2B1g    1.142860
       2B3g    1.142860     7Ag     1.142860     2B2g    1.142860
       8Ag     1.142860     6B1u    2.317600     6B2u    2.317600
       6B3u    2.317600     9Ag     3.180941     3B2g    3.180941
       3B1g    3.180941     4B1g    3.180941     3B3g    3.180941
      10Ag     3.180941     4B2g    3.180941     4B3g    3.180941
      11Ag     3.180941    12Ag     3.456136     7B2u    3.555962
       7B3u    3.555962     8B2u    3.555962     8B3u    3.555962
       7B1u    3.555962     2Au     3.555962     8B1u    3.555962
       5B1g    3.871901    13Ag     3.871901     5B2g    3.871901
       5B3g    3.871901    14Ag     3.871901     9B1u    9.795427
       9B2u    9.795427     9B3u    9.795427    15Ag    10.022610
       6B1g   10.022610     6B2g   10.022610     6B3g   10.022610
      16Ag    10.022610     7B1g   10.022610     7B2g   10.022610
       7B3g   10.022610    17Ag    10.022610    10B3u   11.251724
      10B2u   11.251724    11B2u   11.251724    10B1u   11.251724
       3Au    11.251724    11B3u   11.251724    11B1u   11.251724
       8B1g   12.077279    18Ag    12.077279     8B2g   12.077279
       8B3g   12.077279    19Ag    12.077279    20Ag    39.810671

    Final Occupation by Irrep:
             Ag   B1g   B2g   B3g    Au   B1u   B2u   B3u
    DOCC [     2,    0,    0,    0,    0,    0,    0,    0 ]
    SOCC [     0,    0,    0,    0,    0,    1,    1,    1 ]

  Energy converged.

  @UHF Final Energy:   -74.37573221106769

   => Energetics <=

    Nuclear Repulsion Energy =              0.0000000000000000
    One-Electron Energy =                 -98.4670894826635958
    Two-Electron Energy =                  24.0913572715959035
    Total Energy =                        -74.3757322110676853

  UHF NO Occupations:
  HONO-2 :    1B3u 1.0000000
  HONO-1 :    1B1u 1.0000000
  HONO-0 :    1B2u 1.0000000
  LUNO+0 :    3 Ag 0.0027807
  LUNO+1 :    4 Ag 0.0000037
  LUNO+2 :    5 Ag 0.0000000
  LUNO+3 :    2B1u 0.0000000

Properties will be evaluated at   0.000000,   0.000000,   0.000000 Bohr

Properties computed using the SCF density matrix

  Nuclear Dipole Moment: (a.u.)
     X:     0.0000      Y:     0.0000      Z:     0.0000

  Electronic Dipole Moment: (a.u.)
     X:     0.0000      Y:     0.0000      Z:     0.0000

  Dipole Moment: (a.u.)
     X:     0.0000      Y:     0.0000      Z:     0.0000     Total:     0.0000

  Dipole Moment: (Debye)
     X:     0.0000      Y:     0.0000      Z:     0.0000     Total:     0.0000

*** tstop() called on cqc05 at Thu Aug 20 22:42:02 2020
Module time:
	user time   =       1.21 seconds =       0.02 minutes
	system time =       0.06 seconds =       0.00 minutes
	total time  =          1 seconds =       0.02 minutes
Total time:
	user time   =       1.21 seconds =       0.02 minutes
	system time =       0.06 seconds =       0.00 minutes
	total time  =          1 seconds =       0.02 minutes

*** tstart() called on cqc05
*** at Thu Aug 20 22:42:02 2020

	Wfn Parameters:
	--------------------
	Wavefunction         = CCSD
	Number of irreps     = 8
	Number of MOs        = 80
	Number of active MOs = 79
	AO-Basis             = NONE
	Semicanonical        = false
	Reference            = UHF
	Print Level          = 1

	IRREP	# MOs	# FZDC	# DOCC	# SOCC	# VIRT	# FZVR
	-----	-----	------	------	------	------	------
	 Ag	   20	    1	    1	    0	    18	    0
	 B1g	   8	    0	    0	    0	    8	    0
	 B2g	   8	    0	    0	    0	    8	    0
	 B3g	   8	    0	    0	    0	    8	    0
	 Au	   3	    0	    0	    0	    3	    0
	 B1u	   11	    0	    0	    1	    10	    0
	 B2u	   11	    0	    0	    1	    10	    0
	 B3u	   11	    0	    0	    1	    10	    0
	Transforming integrals...
	IWL integrals will be deleted.
	(OO|OO)...
	Presorting SO-basis two-electron integrals.
	Sorting File: SO Ints (nn|nn) nbuckets = 1
	Transforming the one-electron integrals and constructing Fock matrices
	Starting AA/AB first half-transformation.
	Sorting AA/AB half-transformed integrals.
	Starting BB first half-transformation.
	Sorting BB half-transformed integrals.
	First half integral transformation complete.
	Starting AA second half-transformation.
	Starting AB second half-transformation.
	Starting BB second half-transformation.
	Two-electron integral transformation complete.
	(OO|OV)...
	Starting AA second half-transformation.
	Starting AB second half-transformation.
	Starting BB second half-transformation.
	Two-electron integral transformation complete.
	(OO|VV)...
	Starting AA second half-transformation.
	Starting AB second half-transformation.
	Starting BB second half-transformation.
	Two-electron integral transformation complete.
	(OV|OO)...
	Starting AA/AB first half-transformation.
	Sorting AA/AB half-transformed integrals.
	Starting BB first half-transformation.
	Sorting BB half-transformed integrals.
	First half integral transformation complete.
	Starting AA second half-transformation.
	Starting AB second half-transformation.
	Starting BB second half-transformation.
	Two-electron integral transformation complete.
	(OV|OV)...
	Starting AA second half-transformation.
	Starting AB second half-transformation.
	Starting BB second half-transformation.
	Two-electron integral transformation complete.
	(OV|VV)...
	Starting AA second half-transformation.
	Starting AB second half-transformation.
	Starting BB second half-transformation.
	Two-electron integral transformation complete.
	(VV|OO)...
	Starting AA/AB first half-transformation.
	Sorting AA/AB half-transformed integrals.
	Starting BB first half-transformation.
	Sorting BB half-transformed integrals.
	First half integral transformation complete.
	Starting AA second half-transformation.
	Starting AB second half-transformation.
	Starting BB second half-transformation.
	Two-electron integral transformation complete.
	(VV|OV)...
	Starting AA second half-transformation.
	Starting AB second half-transformation.
	Starting BB second half-transformation.
	Two-electron integral transformation complete.
	(VV|VV)...
	Starting AA second half-transformation.
	Starting AB second half-transformation.
	Starting BB second half-transformation.
	Two-electron integral transformation complete.
	Frozen core energy     =    -59.10671720179334

	Size of irrep 0 of <AB|CD> integrals:      0.141 (MW) /      1.125 (MB)
	Size of irrep 1 of <AB|CD> integrals:      0.114 (MW) /      0.914 (MB)
	Size of irrep 2 of <AB|CD> integrals:      0.114 (MW) /      0.914 (MB)
	Size of irrep 3 of <AB|CD> integrals:      0.114 (MW) /      0.914 (MB)
	Size of irrep 4 of <AB|CD> integrals:      0.086 (MW) /      0.691 (MB)
	Size of irrep 5 of <AB|CD> integrals:      0.132 (MW) /      1.060 (MB)
	Size of irrep 6 of <AB|CD> integrals:      0.132 (MW) /      1.060 (MB)
	Size of irrep 7 of <AB|CD> integrals:      0.132 (MW) /      1.060 (MB)
	Total:                                     0.967 (MW) /      7.738 (MB)

	Size of irrep 0 of <ab|cd> integrals:      0.164 (MW) /      1.312 (MB)
	Size of irrep 1 of <ab|cd> integrals:      0.131 (MW) /      1.048 (MB)
	Size of irrep 2 of <ab|cd> integrals:      0.131 (MW) /      1.048 (MB)
	Size of irrep 3 of <ab|cd> integrals:      0.131 (MW) /      1.048 (MB)
	Size of irrep 4 of <ab|cd> integrals:      0.101 (MW) /      0.809 (MB)
	Size of irrep 5 of <ab|cd> integrals:      0.158 (MW) /      1.267 (MB)
	Size of irrep 6 of <ab|cd> integrals:      0.158 (MW) /      1.267 (MB)
	Size of irrep 7 of <ab|cd> integrals:      0.158 (MW) /      1.267 (MB)
	Total:                                     1.133 (MW) /      9.068 (MB)

	Size of irrep 0 of <Ab|Cd> integrals:      0.731 (MW) /      5.848 (MB)
	Size of irrep 1 of <Ab|Cd> integrals:      0.489 (MW) /      3.909 (MB)
	Size of irrep 2 of <Ab|Cd> integrals:      0.489 (MW) /      3.909 (MB)
	Size of irrep 3 of <Ab|Cd> integrals:      0.489 (MW) /      3.909 (MB)
	Size of irrep 4 of <Ab|Cd> integrals:      0.375 (MW) /      2.996 (MB)
	Size of irrep 5 of <Ab|Cd> integrals:      0.581 (MW) /      4.645 (MB)
	Size of irrep 6 of <Ab|Cd> integrals:      0.581 (MW) /      4.645 (MB)
	Size of irrep 7 of <Ab|Cd> integrals:      0.581 (MW) /      4.645 (MB)
	Total:                                     4.313 (MW) /     34.506 (MB)

	Size of irrep 0 of <IA|BC> integrals:      0.040 (MW) /      0.317 (MB)
	Size of irrep 1 of <IA|BC> integrals:      0.021 (MW) /      0.168 (MB)
	Size of irrep 2 of <IA|BC> integrals:      0.021 (MW) /      0.168 (MB)
	Size of irrep 3 of <IA|BC> integrals:      0.021 (MW) /      0.168 (MB)
	Size of irrep 4 of <IA|BC> integrals:      0.016 (MW) /      0.127 (MB)
	Size of irrep 5 of <IA|BC> integrals:      0.032 (MW) /      0.256 (MB)
	Size of irrep 6 of <IA|BC> integrals:      0.032 (MW) /      0.256 (MB)
	Size of irrep 7 of <IA|BC> integrals:      0.032 (MW) /      0.256 (MB)
	Total:                                     0.214 (MW) /      1.716 (MB)

	Size of irrep 0 of <ia|bc> integrals:      0.016 (MW) /      0.128 (MB)
	Size of irrep 1 of <ia|bc> integrals:      0.006 (MW) /      0.046 (MB)
	Size of irrep 2 of <ia|bc> integrals:      0.006 (MW) /      0.046 (MB)
	Size of irrep 3 of <ia|bc> integrals:      0.006 (MW) /      0.046 (MB)
	Size of irrep 4 of <ia|bc> integrals:      0.002 (MW) /      0.015 (MB)
	Size of irrep 5 of <ia|bc> integrals:      0.009 (MW) /      0.070 (MB)
	Size of irrep 6 of <ia|bc> integrals:      0.009 (MW) /      0.070 (MB)
	Size of irrep 7 of <ia|bc> integrals:      0.009 (MW) /      0.070 (MB)
	Total:                                     0.062 (MW) /      0.492 (MB)

	Size of irrep 0 of <Ia|Bc> integrals:      0.044 (MW) /      0.349 (MB)
	Size of irrep 1 of <Ia|Bc> integrals:      0.023 (MW) /      0.185 (MB)
	Size of irrep 2 of <Ia|Bc> integrals:      0.023 (MW) /      0.185 (MB)
	Size of irrep 3 of <Ia|Bc> integrals:      0.023 (MW) /      0.185 (MB)
	Size of irrep 4 of <Ia|Bc> integrals:      0.017 (MW) /      0.132 (MB)
	Size of irrep 5 of <Ia|Bc> integrals:      0.034 (MW) /      0.274 (MB)
	Size of irrep 6 of <Ia|Bc> integrals:      0.034 (MW) /      0.274 (MB)
	Size of irrep 7 of <Ia|Bc> integrals:      0.034 (MW) /      0.274 (MB)
	Total:                                     0.232 (MW) /      1.858 (MB)

	Size of irrep 0 of <iA|bC> integrals:      0.015 (MW) /      0.123 (MB)
	Size of irrep 1 of <iA|bC> integrals:      0.006 (MW) /      0.045 (MB)
	Size of irrep 2 of <iA|bC> integrals:      0.006 (MW) /      0.045 (MB)
	Size of irrep 3 of <iA|bC> integrals:      0.006 (MW) /      0.045 (MB)
	Size of irrep 4 of <iA|bC> integrals:      0.002 (MW) /      0.015 (MB)
	Size of irrep 5 of <iA|bC> integrals:      0.008 (MW) /      0.061 (MB)
	Size of irrep 6 of <iA|bC> integrals:      0.008 (MW) /      0.061 (MB)
	Size of irrep 7 of <iA|bC> integrals:      0.008 (MW) /      0.061 (MB)
	Total:                                     0.057 (MW) /      0.455 (MB)

	Size of irrep 0 of tIjAb amplitudes:       0.001 (MW) /      0.007 (MB)
	Size of irrep 1 of tIjAb amplitudes:       0.000 (MW) /      0.000 (MB)
	Size of irrep 2 of tIjAb amplitudes:       0.000 (MW) /      0.000 (MB)
	Size of irrep 3 of tIjAb amplitudes:       0.000 (MW) /      0.000 (MB)
	Size of irrep 4 of tIjAb amplitudes:       0.000 (MW) /      0.000 (MB)
	Size of irrep 5 of tIjAb amplitudes:       0.001 (MW) /      0.006 (MB)
	Size of irrep 6 of tIjAb amplitudes:       0.001 (MW) /      0.006 (MB)
	Size of irrep 7 of tIjAb amplitudes:       0.001 (MW) /      0.006 (MB)
	Total:                                     0.003 (MW) /      0.025 (MB)

	Nuclear Rep. energy          =      0.00000000000000
	SCF energy                   =    -74.37573221106769
	One-electron energy          =    -22.94357600647624
	Two-electron (AA) energy     =      4.36701209655512
	Two-electron (BB) energy     =      0.00000000000000
	Two-electron (AB) energy     =      3.30754890064686
	Two-electron energy          =      7.67456099720198
	Reference energy             =    -74.37573221106760

*** tstop() called on cqc05 at Thu Aug 20 22:42:03 2020
Module time:
	user time   =       0.42 seconds =       0.01 minutes
	system time =       0.30 seconds =       0.01 minutes
	total time  =          1 seconds =       0.02 minutes
Total time:
	user time   =       1.63 seconds =       0.03 minutes
	system time =       0.36 seconds =       0.01 minutes
	total time  =          2 seconds =       0.03 minutes

*** tstart() called on cqc05
*** at Thu Aug 20 22:42:03 2020

            **************************
            *                        *
            *        CCENERGY        *
            *                        *
            **************************

    Nuclear Rep. energy (wfn)     =    0.000000000000000
    SCF energy          (wfn)     =  -74.375732211067685
    Reference energy    (file100) =  -74.375732211067600

    Input parameters:
    -----------------
    Wave function   =     CCSD
    Reference wfn   =     UHF
    Brueckner       =     No
    Memory (Mbytes) =     250000.0
    Maxiter         =     50
    R_Convergence   =     1.0e-07
    E_Convergence   =     1.0e-06
    Restart         =     Yes
    DIIS            =     Yes
    AO Basis        =     NONE
    ABCD            =     NEW
    Cache Level     =     2
    Cache Type      =     LRU
    Print Level     =     1
    Num. of threads =     4
    # Amps to Print =     10
    Print MP2 Amps? =     No
    Analyze T2 Amps =     No
    Print Pair Ener =     No
    Local CC        =     No
    SCS-MP2         =     False
    SCSN-MP2        =     False
    SCS-CCSD        =     False

MP2 correlation energy -0.1073026691412676
                Solving CC Amplitude Equations
                ------------------------------
  Iter             Energy              RMS        T1Diag      D1Diag    New D1Diag    D2Diag
  ----     ---------------------    ---------   ----------  ----------  ----------   --------
     0        -0.107302669141268    0.000e+00    0.000000    0.000000    0.000000    0.000000
     1        -0.117968267327384    2.320e-02    0.003349    0.000000    0.000000    0.000000
     2        -0.120877705789214    7.914e-03    0.005441    0.000000    0.000000    0.000000
     3        -0.120961513343007    1.662e-03    0.006021    0.000000    0.000000    0.000000
     4        -0.120952930217577    3.684e-04    0.006068    0.000000    0.000000    0.000000
     5        -0.120956187226762    8.123e-05    0.006062    0.000000    0.000000    0.000000
     6        -0.120957069824295    1.282e-05    0.006060    0.000000    0.000000    0.000000
     7        -0.120957010082985    2.178e-06    0.006060    0.000000    0.000000    0.000000
     8        -0.120956994393858    3.787e-07    0.006060    0.000000    0.000000    0.000000
     9        -0.120956996252654    7.672e-08    0.006060    0.000000    0.000000    0.000000
     9        -0.120956996252654    7.672e-08    0.006060    0.000000    0.000000    0.000000

    Iterations converged.

    CCSD corr. energy   =   -0.120956996252654
    PPL corr. energy    =    0.023769531563363
    OS PPL corr. energy =    0.019430803816200
    SS PPL corr. energy =    0.004338727747162
    Largest TIA Amplitudes:
              0   0        -0.0040579539
              0   3         0.0033495080
              1  46        -0.0027387711
              2  56        -0.0027387711
              3  66        -0.0027387711
              1  45        -0.0024412037
              2  55        -0.0024412037
              3  65        -0.0024412037
              1  49         0.0005171912
              2  59         0.0005171912

    Largest Tia Amplitudes:
              0   3        -0.0078218864
              0   0         0.0060099460
              0   9         0.0040855026
              0  17        -0.0001196391

    Largest TIJAB Amplitudes:
      3   2  19   4        -0.0143370298
      3   2  69  59        -0.0142459730
      3   1  69  49        -0.0142459730

      * MP2 total energy                      =  -74.483034880208862
      * CCSD total energy                     =  -74.496689207320259
*** Psi4 exiting successfully. Buy a developer a beer!
