                               Psi4 1.2a1.dev939

  ==> Input File <==

--------------------------------------------------------------------------
# Any line starting with the # character is a comment line
memory 250000 mb
molecule molecule{
1 4
O          0.0000000000        0.0000000000        0.0000000000
}

set {
  reference uhf
  basis aug-cc-pv(6+d)z
  scf_type OUT_OF_CORE
  freeze_core true
}

energy('ccsd')
--------------------------------------------------------------------------

    Molecular point group: d2h
    Geometry (in Angstrom), charge = 1, multiplicity = 4:

       Center              X                  Y                   Z               Mass
    ------------   -----------------  -----------------  -----------------  -----------------
           O          0.000000000000     0.000000000000     0.000000000000    15.994914619560

  Charge       = 1
  Multiplicity = 4
  Basis Set: AUG-CC-PV(6+D)Z
    Blend: AUG-CC-PV(6+D)Z

    Orbital Energies (a.u.)
    -----------------------

    Alpha Occupied:

       1Ag   -21.410793     2Ag    -2.071557     1B3u   -1.330785
       1B2u   -1.330785     1B1u   -1.330785

    Alpha Virtual:

       3Ag    -0.144996     2B3u   -0.099216     2B2u   -0.099216
       2B1u   -0.099216     4Ag     0.087293     1B3g    0.087293
       1B2g    0.087293     1B1g    0.087293     5Ag     0.087293
       3B3u    0.087628     3B2u    0.087628     3B1u    0.087628
       6Ag     0.248076     4B3u    0.501244     4B2u    0.501244
       4B1u    0.501244     1Au     0.501244     5B3u    0.501244
       5B2u    0.501244     5B1u    0.501244     7Ag     0.667307
       2B3g    0.667307     2B2g    0.667307     2B1g    0.667307
       8Ag     0.667307     6B3u    0.715386     6B2u    0.715386
       6B1u    0.715386     9Ag     1.585240    10Ag     1.665792
       3B1g    1.665792     3B2g    1.665792     3B3g    1.665792
      11Ag     1.665792     4B1g    1.665792     4B2g    1.665792
       4B3g    1.665792    12Ag     1.665792     7B1u    1.844708
       7B2u    1.844708     7B3u    1.844708     2Au     1.844708
       8B1u    1.844708     8B3u    1.844708     8B2u    1.844708
      13Ag     2.058532     5B1g    2.058532     5B2g    2.058532
       5B3g    2.058532    14Ag     2.058532     9B3u    2.477203
       9B2u    2.477203     9B1u    2.477203    10B3u    3.971677
      10B2u    3.971677    10B1u    3.971677     3Au     3.971677
      11B3u    3.971677    11B2u    3.971677    11B1u    3.971677
       4Au     3.971677    12B3u    3.971677    12B2u    3.971677
      12B1u    3.971677    13B3u    4.819599    13B2u    4.819599
      13B1u    4.819599     5Au     4.819599    14B3u    4.819599
      14B1u    4.819599    14B2u    4.819599    15Ag     4.897907
       6B1g    4.897907     6B2g    4.897907     6B3g    4.897907
      16Ag     4.897907     7B1g    4.897907     7B2g    4.897907
      17Ag     4.897907     7B3g    4.897907    18Ag     5.391608
       8B1g    5.391608     8B2g    5.391608     8B3g    5.391608
      19Ag     5.391608    20Ag     5.686602    15B3u    7.027065
      15B2u    7.027065    15B1u    7.027065    21Ag     8.826432
       9B1g    8.826432     9B2g    8.826432     9B3g    8.826432
      22Ag     8.826432    10B1g    8.826432    10B2g    8.826432
      10B3g    8.826432    23Ag     8.826432    11B1g    8.826432
      11B2g    8.826432    24Ag     8.826432    11B3g    8.826432
      16B3u   10.203316    16B2u   10.203316    16B1u   10.203316
       6Au    10.203316    17B3u   10.203316    17B2u   10.203316
      17B1u   10.203316     7Au    10.203316    18B3u   10.203316
      18B1u   10.203316    18B2u   10.203316    19B1u   11.561824
      20B1u   11.561824    19B3u   11.561824    19B2u   11.561824
       8Au    11.561824    20B3u   11.561824    20B2u   11.561824
      25Ag    12.316024    12B3g   12.316024    12B2g   12.316024
      12B1g   12.316024    26Ag    12.316024    13B2g   12.316024
      13B3g   12.316024    27Ag    12.316024    13B1g   12.316024
      28Ag    13.521423    14B1g   13.521423    14B2g   13.521423
      14B3g   13.521423    29Ag    13.521423    30Ag    19.010183
      21B3u   21.688813    21B2u   21.688813    21B1u   21.688813
      31Ag    22.061013    15B3g   22.061013    15B2g   22.061013
      15B1g   22.061013    32Ag    22.061013    16B3g   22.061013
      16B2g   22.061013    16B1g   22.061013    33Ag    22.061013
      17B3g   22.061013    17B2g   22.061013    34Ag    22.061013
      17B1g   22.061013    22B1u   26.091803    22B2u   26.091803
      22B3u   26.091803     9Au    26.091803    23B1u   26.091803
      23B2u   26.091803    23B3u   26.091803    10Au    26.091803
      24B1u   26.091803    24B2u   26.091803    24B3u   26.091803
      25B1u   27.700300    25B2u   27.700300    25B3u   27.700300
      26B1u   27.700300    11Au    27.700300    26B3u   27.700300
      26B2u   27.700300    35Ag    30.728945    18B3g   30.728945
      18B2g   30.728945    18B1g   30.728945    36Ag    30.728945
      19B3g   30.728945    19B2g   30.728945    19B1g   30.728945
      37Ag    30.728945    38Ag    33.737314    20B3g   33.737314
      20B2g   33.737314    20B1g   33.737314    39Ag    33.737314
      40Ag    98.704086

    Beta Occupied:

       1Ag   -21.278027     2Ag    -1.530666

    Beta Virtual:

       1B3u   -0.382313     1B2u   -0.382313     1B1u   -0.382313
       3Ag    -0.130707     2B3u   -0.083296     2B2u   -0.083296
       2B1u   -0.083296     4Ag     0.095084     1B1g    0.095084
       1B2g    0.095084     1B3g    0.095084     5Ag     0.095084
       3B3u    0.133983     3B2u    0.133983     3B1u    0.133983
       6Ag     0.287528     4B3u    0.504254     4B2u    0.504254
       4B1u    0.504254     1Au     0.504254     5B3u    0.504254
       5B2u    0.504254     5B1u    0.504254     7Ag     0.724506
       2B1g    0.724506     2B2g    0.724506     2B3g    0.724506
       8Ag     0.724506     6B3u    0.816517     6B2u    0.816517
       6B1u    0.816517     9Ag     1.671545     3B1g    1.671545
       3B2g    1.671545     3B3g    1.671545    10Ag     1.671545
       4B1g    1.671545     4B2g    1.671545     4B3g    1.671545
      11Ag     1.671545    12Ag     1.676199     7B3u    1.872618
       7B2u    1.872618     7B1u    1.872618     2Au     1.872618
       8B3u    1.872618     8B2u    1.872618     8B1u    1.872618
      13Ag     2.194198     5B1g    2.194198     5B2g    2.194198
       5B3g    2.194198    14Ag     2.194198     9B3u    2.612887
       9B2u    2.612887     9B1u    2.612887    10B3u    3.981427
      10B2u    3.981427    10B1u    3.981427     3Au     3.981427
      11B3u    3.981427    11B2u    3.981427    11B1u    3.981427
       4Au     3.981427    12B3u    3.981427    12B2u    3.981427
      12B1u    3.981427    13B3u    4.897858    13B2u    4.897858
      13B1u    4.897858     5Au     4.897858    14B3u    4.897858
      14B2u    4.897858    14B1u    4.897858    15Ag     4.931524
       6B1g    4.931524     6B2g    4.931524     6B3g    4.931524
      16Ag     4.931524     7B1g    4.931524     7B2g    4.931524
       7B3g    4.931524    17Ag     4.931524    18Ag     5.556544
       8B3g    5.556544     8B2g    5.556544     8B1g    5.556544
      19Ag     5.556544    20Ag     5.808550    15B1u    7.163644
      15B2u    7.163644    15B3u    7.163644    21Ag     8.843180
       9B1g    8.843180     9B2g    8.843180     9B3g    8.843180
      22Ag     8.843180    10B1g    8.843180    10B2g    8.843180
      10B3g    8.843180    23Ag     8.843180    11B1g    8.843180
      11B2g    8.843180    24Ag     8.843180    11B3g    8.843180
      16B3u   10.238828    16B2u   10.238828    16B1u   10.238828
       6Au    10.238828    17B3u   10.238828    17B2u   10.238828
      17B1u   10.238828     7Au    10.238828    18B3u   10.238828
      18B2u   10.238828    18B1u   10.238828    19B2u   11.670342
      19B1u   11.670342    19B3u   11.670342     8Au    11.670342
      20B1u   11.670342    20B2u   11.670342    20B3u   11.670342
      12B3g   12.387791    25Ag    12.387791    12B1g   12.387791
      12B2g   12.387791    26Ag    12.387791    13B3g   12.387791
      13B2g   12.387791    13B1g   12.387791    27Ag    12.387791
      28Ag    13.658811    14B3g   13.658811    14B2g   13.658811
      14B1g   13.658811    29Ag    13.658811    30Ag    19.106482
      21B1u   21.783810    21B2u   21.783810    21B3u   21.783810
      31Ag    22.101275    15B3g   22.101275    15B1g   22.101275
      15B2g   22.101275    16B3g   22.101275    32Ag    22.101275
      16B2g   22.101275    16B1g   22.101275    33Ag    22.101275
      17B3g   22.101275    17B2g   22.101275    17B1g   22.101275
      34Ag    22.101275    22B2u   26.153939    22B1u   26.153939
      22B3u   26.153939     9Au    26.153939    23B1u   26.153939
      23B2u   26.153939    23B3u   26.153939    10Au    26.153939
      24B1u   26.153939    24B2u   26.153939    24B3u   26.153939
      25B1u   27.795267    25B2u   27.795267    25B3u   27.795267
      11Au    27.795267    26B1u   27.795267    26B2u   27.795267
      26B3u   27.795267    35Ag    30.808027    18B3g   30.808027
      18B2g   30.808027    18B1g   30.808027    36Ag    30.808027
      19B3g   30.808027    19B2g   30.808027    19B1g   30.808027
      37Ag    30.808027    38Ag    33.823712    20B3g   33.823712
      20B2g   33.823712    20B1g   33.823712    39Ag    33.823712
      40Ag    98.738122

    Final Occupation by Irrep:
             Ag   B1g   B2g   B3g    Au   B1u   B2u   B3u
    DOCC [     2,    0,    0,    0,    0,    0,    0,    0 ]
    SOCC [     0,    0,    0,    0,    0,    1,    1,    1 ]

  Energy converged.

  @UHF Final Energy:   -74.37711317933854

   => Energetics <=

    Nuclear Repulsion Energy =              0.0000000000000000
    One-Electron Energy =                 -98.4708285337209190
    Two-Electron Energy =                  24.0937153543823790
    Total Energy =                        -74.3771131793385365

  UHF NO Occupations:
  HONO-2 :    1B3u 1.0000000
  HONO-1 :    1B1u 1.0000000
  HONO-0 :    1B2u 1.0000000
  LUNO+0 :    3 Ag 0.0027784
  LUNO+1 :    4 Ag 0.0000044
  LUNO+2 :    5 Ag 0.0000000
  LUNO+3 :    2B3u 0.0000000

Properties will be evaluated at   0.000000,   0.000000,   0.000000 Bohr

Properties computed using the SCF density matrix

  Nuclear Dipole Moment: (a.u.)
     X:     0.0000      Y:     0.0000      Z:     0.0000

  Electronic Dipole Moment: (a.u.)
     X:     0.0000      Y:     0.0000      Z:     0.0000

  Dipole Moment: (a.u.)
     X:     0.0000      Y:     0.0000      Z:     0.0000     Total:     0.0000

  Dipole Moment: (Debye)
     X:     0.0000      Y:     0.0000      Z:     0.0000     Total:     0.0000

*** tstop() called on n412-071.vsc4.prov at Mon Nov  2 10:52:22 2020
Module time:
	user time   =     256.38 seconds =       4.27 minutes
	system time =       6.54 seconds =       0.11 minutes
	total time  =         75 seconds =       1.25 minutes
Total time:
	user time   =     256.38 seconds =       4.27 minutes
	system time =       6.54 seconds =       0.11 minutes
	total time  =         75 seconds =       1.25 minutes

*** tstart() called on n412-071.vsc4.prov
*** at Mon Nov  2 10:52:22 2020

	Wfn Parameters:
	--------------------
	Wavefunction         = CCSD
	Number of irreps     = 8
	Number of MOs        = 189
	Number of active MOs = 188
	AO-Basis             = NONE
	Semicanonical        = false
	Reference            = UHF
	Print Level          = 1

	IRREP	# MOs	# FZDC	# DOCC	# SOCC	# VIRT	# FZVR
	-----	-----	------	------	------	------	------
	 Ag	   40	    1	    1	    0	    38	    0
	 B1g	   20	    0	    0	    0	    20	    0
	 B2g	   20	    0	    0	    0	    20	    0
	 B3g	   20	    0	    0	    0	    20	    0
	 Au	   11	    0	    0	    0	    11	    0
	 B1u	   26	    0	    0	    1	    25	    0
	 B2u	   26	    0	    0	    1	    25	    0
	 B3u	   26	    0	    0	    1	    25	    0
	Transforming integrals...
	IWL integrals will be deleted.
	(OO|OO)...
	Presorting SO-basis two-electron integrals.
	Sorting File: SO Ints (nn|nn) nbuckets = 1
	Transforming the one-electron integrals and constructing Fock matrices
	Starting AA/AB first half-transformation.
	Sorting AA/AB half-transformed integrals.
	Starting BB first half-transformation.
	Sorting BB half-transformed integrals.
	First half integral transformation complete.
	Starting AA second half-transformation.
	Starting AB second half-transformation.
	Starting BB second half-transformation.
	Two-electron integral transformation complete.
	(OO|OV)...
	Starting AA second half-transformation.
	Starting AB second half-transformation.
	Starting BB second half-transformation.
	Two-electron integral transformation complete.
	(OO|VV)...
	Starting AA second half-transformation.
	Starting AB second half-transformation.
	Starting BB second half-transformation.
	Two-electron integral transformation complete.
	(OV|OO)...
	Starting AA/AB first half-transformation.
	Sorting AA/AB half-transformed integrals.
	Starting BB first half-transformation.
	Sorting BB half-transformed integrals.
	First half integral transformation complete.
	Starting AA second half-transformation.
	Starting AB second half-transformation.
	Starting BB second half-transformation.
	Two-electron integral transformation complete.
	(OV|OV)...
	Starting AA second half-transformation.
	Starting AB second half-transformation.
	Starting BB second half-transformation.
	Two-electron integral transformation complete.
	(OV|VV)...
	Starting AA second half-transformation.
	Starting AB second half-transformation.
	Starting BB second half-transformation.
	Two-electron integral transformation complete.
	(VV|OO)...
	Starting AA/AB first half-transformation.
	Sorting AA/AB half-transformed integrals.
	Starting BB first half-transformation.
	Sorting BB half-transformed integrals.
	First half integral transformation complete.
	Starting AA second half-transformation.
	Starting AB second half-transformation.
	Starting BB second half-transformation.
	Two-electron integral transformation complete.
	(VV|OV)...
	Starting AA second half-transformation.
	Starting AB second half-transformation.
	Starting BB second half-transformation.
	Two-electron integral transformation complete.
	(VV|VV)...
	Starting AA second half-transformation.
	Starting AB second half-transformation.
	Starting BB second half-transformation.
	Two-electron integral transformation complete.
	Frozen core energy     =    -59.10687639068436

	Size of irrep 0 of <AB|CD> integrals:      4.964 (MW) /     39.712 (MB)
	Size of irrep 1 of <AB|CD> integrals:      4.244 (MW) /     33.949 (MB)
	Size of irrep 2 of <AB|CD> integrals:      4.244 (MW) /     33.949 (MB)
	Size of irrep 3 of <AB|CD> integrals:      4.244 (MW) /     33.949 (MB)
	Size of irrep 4 of <AB|CD> integrals:      3.679 (MW) /     29.430 (MB)
	Size of irrep 5 of <AB|CD> integrals:      4.709 (MW) /     37.671 (MB)
	Size of irrep 6 of <AB|CD> integrals:      4.709 (MW) /     37.671 (MB)
	Size of irrep 7 of <AB|CD> integrals:      4.709 (MW) /     37.671 (MB)
	Total:                                    35.500 (MW) /    284.002 (MB)

	Size of irrep 0 of <ab|cd> integrals:      5.304 (MW) /     42.430 (MB)
	Size of irrep 1 of <ab|cd> integrals:      4.503 (MW) /     36.023 (MB)
	Size of irrep 2 of <ab|cd> integrals:      4.503 (MW) /     36.023 (MB)
	Size of irrep 3 of <ab|cd> integrals:      4.503 (MW) /     36.023 (MB)
	Size of irrep 4 of <ab|cd> integrals:      3.912 (MW) /     31.300 (MB)
	Size of irrep 5 of <ab|cd> integrals:      5.054 (MW) /     40.428 (MB)
	Size of irrep 6 of <ab|cd> integrals:      5.054 (MW) /     40.428 (MB)
	Size of irrep 7 of <ab|cd> integrals:      5.054 (MW) /     40.428 (MB)
	Total:                                    37.885 (MW) /    303.084 (MB)

	Size of irrep 0 of <Ab|Cd> integrals:     22.231 (MW) /    177.850 (MB)
	Size of irrep 1 of <Ab|Cd> integrals:     17.481 (MW) /    139.846 (MB)
	Size of irrep 2 of <Ab|Cd> integrals:     17.481 (MW) /    139.846 (MB)
	Size of irrep 3 of <Ab|Cd> integrals:     17.481 (MW) /    139.846 (MB)
	Size of irrep 4 of <Ab|Cd> integrals:     15.179 (MW) /    121.431 (MB)
	Size of irrep 5 of <Ab|Cd> integrals:     19.519 (MW) /    156.150 (MB)
	Size of irrep 6 of <Ab|Cd> integrals:     19.519 (MW) /    156.150 (MB)
	Size of irrep 7 of <Ab|Cd> integrals:     19.519 (MW) /    156.150 (MB)
	Total:                                   148.408 (MW) /   1187.268 (MB)

	Size of irrep 0 of <IA|BC> integrals:      0.524 (MW) /      4.195 (MB)
	Size of irrep 1 of <IA|BC> integrals:      0.334 (MW) /      2.670 (MB)
	Size of irrep 2 of <IA|BC> integrals:      0.334 (MW) /      2.670 (MB)
	Size of irrep 3 of <IA|BC> integrals:      0.334 (MW) /      2.670 (MB)
	Size of irrep 4 of <IA|BC> integrals:      0.272 (MW) /      2.179 (MB)
	Size of irrep 5 of <IA|BC> integrals:      0.447 (MW) /      3.576 (MB)
	Size of irrep 6 of <IA|BC> integrals:      0.447 (MW) /      3.576 (MB)
	Size of irrep 7 of <IA|BC> integrals:      0.447 (MW) /      3.576 (MB)
	Total:                                     3.139 (MW) /     25.111 (MB)

	Size of irrep 0 of <ia|bc> integrals:      0.182 (MW) /      1.457 (MB)
	Size of irrep 1 of <ia|bc> integrals:      0.085 (MW) /      0.679 (MB)
	Size of irrep 2 of <ia|bc> integrals:      0.085 (MW) /      0.679 (MB)
	Size of irrep 3 of <ia|bc> integrals:      0.085 (MW) /      0.679 (MB)
	Size of irrep 4 of <ia|bc> integrals:      0.044 (MW) /      0.348 (MB)
	Size of irrep 5 of <ia|bc> integrals:      0.117 (MW) /      0.935 (MB)
	Size of irrep 6 of <ia|bc> integrals:      0.117 (MW) /      0.935 (MB)
	Size of irrep 7 of <ia|bc> integrals:      0.117 (MW) /      0.935 (MB)
	Total:                                     0.831 (MW) /      6.648 (MB)

	Size of irrep 0 of <Ia|Bc> integrals:      0.547 (MW) /      4.376 (MB)
	Size of irrep 1 of <Ia|Bc> integrals:      0.347 (MW) /      2.776 (MB)
	Size of irrep 2 of <Ia|Bc> integrals:      0.347 (MW) /      2.776 (MB)
	Size of irrep 3 of <Ia|Bc> integrals:      0.347 (MW) /      2.776 (MB)
	Size of irrep 4 of <Ia|Bc> integrals:      0.277 (MW) /      2.213 (MB)
	Size of irrep 5 of <Ia|Bc> integrals:      0.459 (MW) /      3.676 (MB)
	Size of irrep 6 of <Ia|Bc> integrals:      0.459 (MW) /      3.676 (MB)
	Size of irrep 7 of <Ia|Bc> integrals:      0.459 (MW) /      3.676 (MB)
	Total:                                     3.243 (MW) /     25.944 (MB)

	Size of irrep 0 of <iA|bC> integrals:      0.179 (MW) /      1.433 (MB)
	Size of irrep 1 of <iA|bC> integrals:      0.084 (MW) /      0.669 (MB)
	Size of irrep 2 of <iA|bC> integrals:      0.084 (MW) /      0.669 (MB)
	Size of irrep 3 of <iA|bC> integrals:      0.084 (MW) /      0.669 (MB)
	Size of irrep 4 of <iA|bC> integrals:      0.043 (MW) /      0.343 (MB)
	Size of irrep 5 of <iA|bC> integrals:      0.110 (MW) /      0.884 (MB)
	Size of irrep 6 of <iA|bC> integrals:      0.110 (MW) /      0.884 (MB)
	Size of irrep 7 of <iA|bC> integrals:      0.110 (MW) /      0.884 (MB)
	Total:                                     0.804 (MW) /      6.434 (MB)

	Size of irrep 0 of tIjAb amplitudes:       0.005 (MW) /      0.038 (MB)
	Size of irrep 1 of tIjAb amplitudes:       0.000 (MW) /      0.000 (MB)
	Size of irrep 2 of tIjAb amplitudes:       0.000 (MW) /      0.000 (MB)
	Size of irrep 3 of tIjAb amplitudes:       0.000 (MW) /      0.000 (MB)
	Size of irrep 4 of tIjAb amplitudes:       0.000 (MW) /      0.000 (MB)
	Size of irrep 5 of tIjAb amplitudes:       0.004 (MW) /      0.035 (MB)
	Size of irrep 6 of tIjAb amplitudes:       0.004 (MW) /      0.035 (MB)
	Size of irrep 7 of tIjAb amplitudes:       0.004 (MW) /      0.035 (MB)
	Total:                                     0.018 (MW) /      0.144 (MB)

	Nuclear Rep. energy          =      0.00000000000000
	SCF energy                   =    -74.37711317933854
	One-electron energy          =    -22.94589512760095
	Two-electron (AA) energy     =      4.36786815300915
	Two-electron (BB) energy     =      0.00000000000000
	Two-electron (AB) energy     =      3.30779018593774
	Two-electron energy          =      7.67565833894689
	Reference energy             =    -74.37711317933842

*** tstop() called on n412-071.vsc4.prov at Mon Nov  2 10:53:26 2020
Module time:
	user time   =      16.71 seconds =       0.28 minutes
	system time =      12.46 seconds =       0.21 minutes
	total time  =         64 seconds =       1.07 minutes
Total time:
	user time   =     273.09 seconds =       4.55 minutes
	system time =      19.00 seconds =       0.32 minutes
	total time  =        139 seconds =       2.32 minutes

*** tstart() called on n412-071.vsc4.prov
*** at Mon Nov  2 10:53:26 2020

            **************************
            *                        *
            *        CCENERGY        *
            *                        *
            **************************

    Nuclear Rep. energy (wfn)     =    0.000000000000000
    SCF energy          (wfn)     =  -74.377113179338536

      * MP2 total energy                      =  -74.489459947195982
      * CCSD total energy                     =  -74.501778673187587
*** Psi4 exiting successfully. Buy a developer a beer!
