                               Psi4 1.2a1.dev939

  ==> Input File <==

--------------------------------------------------------------------------
# Any line starting with the # character is a comment line

memory 32000 mb

molecule molecule {
0 1
S          0.0000000956        0.0000000000        0.0000000000
O          0.7168981180       -1.2417042476        0.0000000000
O          0.7168981180        1.2417042476        0.0000000000
O         -1.4337962317        0.0000000000        0.0000000000
}

set {
  reference rhf

  basis aug-cc-pv(5+d)z
  scf_type OUT_OF_CORE
  freeze_core true
}

energy('ccsd')
--------------------------------------------------------------------------

    Molecular point group: c2v

    Geometry (in Angstrom), charge = 0, multiplicity = 1:

       Center              X                  Y                   Z               Mass
    ------------   -----------------  -----------------  -----------------  -----------------
           S         -0.000000000000     0.000000000000     0.000000056513    31.972070999000
           O         -0.000000000000     1.241704247600     0.716898078913    15.994914619560
           O          0.000000000000    -1.241704247600     0.716898078913    15.994914619560
           O         -0.000000000000     0.000000000000    -1.433796270787    15.994914619560

  Charge       = 0
  Multiplicity = 1
  Basis Set: AUG-CC-PV(5+D)Z
    Blend: AUG-CC-PV(5+D)Z

    Orbital Energies (a.u.)
    -----------------------

    Doubly Occupied:

       1A1   -92.268833     2A1   -20.654552     1B2   -20.654552
       3A1   -20.654503     4A1    -9.237240     1B1    -6.926094
       2B2    -6.920556     5A1    -6.920556     6A1    -1.574427
       7A1    -1.433123     3B2    -1.433122     8A1    -0.870696
       4B2    -0.744956     9A1    -0.744956     2B1    -0.743739
      10A1    -0.620345     5B2    -0.620345     3B1    -0.571503
       1A2    -0.571503     6B2    -0.540688

  @RHF Final Energy:  -622.19306276643113

   => Energetics <=

    Nuclear Repulsion Energy =            182.6368125679512673
    One-Electron Energy =               -1220.2471680007745363
    Two-Electron Energy =                 415.4172926663922567
    Total Energy =                       -622.1930627664310123
      * MP2 total energy                      = -623.198319952496945
      * CCSD total energy                     = -623.166404861467413
*** Psi4 exiting successfully. Buy a developer a beer!
