                               Psi4 1.2a1.dev939

  ==> Input File <==

--------------------------------------------------------------------------
# Any line starting with the # character is a comment line

memory 32000 mb

molecule molecule {
0 1
S          0.0000000956        0.0000000000        0.0000000000
O          0.7168981180       -1.2417042476        0.0000000000
O          0.7168981180        1.2417042476        0.0000000000
O         -1.4337962317        0.0000000000        0.0000000000
}

set {
  reference rhf
  basis aug-cc-pv(T+d)z
  scf_type OUT_OF_CORE
  freeze_core true
}

energy('ccsd')
--------------------------------------------------------------------------

    Molecular point group: c2v

    Geometry (in Angstrom), charge = 0, multiplicity = 1:

       Center              X                  Y                   Z               Mass
    ------------   -----------------  -----------------  -----------------  -----------------
           S         -0.000000000000     0.000000000000     0.000000056513    31.972070999000
           O         -0.000000000000     1.241704247600     0.716898078913    15.994914619560
           O          0.000000000000    -1.241704247600     0.716898078913    15.994914619560
           O         -0.000000000000     0.000000000000    -1.433796270787    15.994914619560

  Charge       = 0
  Multiplicity = 1
  Basis Set: AUG-CC-PV(T+D)Z
    Blend: AUG-CC-PV(T+D)Z

    Orbital Energies (a.u.)
    -----------------------

    Doubly Occupied:

       1A1   -92.275104     1B2   -20.658696     2A1   -20.658696
       3A1   -20.658647     4A1    -9.241178     1B1    -6.929421
       5A1    -6.924134     2B2    -6.924134     6A1    -1.576194
       3B2    -1.434864     7A1    -1.434864     8A1    -0.871586
       4B2    -0.745466     9A1    -0.745466     2B1    -0.743987
       5B2    -0.620367    10A1    -0.620367     1A2    -0.571401
       3B1    -0.571401     6B2    -0.540696

  @RHF Final Energy:  -622.16686195450745

   => Energetics <=

    Nuclear Repulsion Energy =            182.6368125679512673
    One-Electron Energy =               -1220.1140129970108319
    Two-Electron Energy =                 415.3103384745521680
    PCM Polarization Energy =               0.0000000000000000
    Total Energy =                       -622.1668619545074534
      * MP2 total energy                      = -623.083227926505174
      * CCSD total energy                     = -623.065401998656739
*** Psi4 exiting successfully. Buy a developer a beer!
