                               Psi4 1.2a1.dev938

  ==> Input File <==

--------------------------------------------------------------------------
# Any line starting with the # character is a comment line
memory 250000 mb
molecule molecule{
1 3
S          0.0000000000        0.0000000000       -0.0413619065
H          0.0000000000        0.0000000000        1.3156167249
}

set {
  reference uhf
  basis aug-cc-pv(q+d)z
  scf_type OUT_OF_CORE
  freeze_core true
}

energy('ccsd')
--------------------------------------------------------------------------

    Molecular point group: c2v

    Geometry (in Angstrom), charge = 1, multiplicity = 3:

       Center              X                  Y                   Z               Mass
    ------------   -----------------  -----------------  -----------------  -----------------
           S          0.000000000000     0.000000000000    -0.041467596848    31.972070999000
           H          0.000000000000     0.000000000000     1.315511034552     1.007825032070

  Charge       = 1
  Multiplicity = 3
  Basis Set: AUG-CC-PV(Q+D)Z
    Blend: AUG-CC-PV(Q+D)Z

    Orbital Energies (a.u.)
    -----------------------

    Alpha Occupied:

       1A1   -92.405805     2A1    -9.402117     1B2    -7.095003
       1B1    -7.095003     3A1    -7.073850     4A1    -1.388691
       5A1    -0.898854     2B2    -0.835098     2B1    -0.835098

    Alpha Virtual:

       6A1    -0.149005     7A1    -0.102179     8A1    -0.078194
       3B2    -0.077869     3B1    -0.077869     4B2    -0.033397
       4B1    -0.033397     9A1    -0.028785     1A2    -0.028785
      10A1    -0.028305    11A1     0.072987     5B2     0.096269
       5B1     0.096269    12A1     0.099092    13A1     0.169777
       6B2     0.175849     6B1     0.175849     7B2     0.201759
       7B1     0.201759    14A1     0.203246    15A1     0.204075
       2A2     0.204075    16A1     0.311732     3A2     0.311732
       8B1     0.313943     8B2     0.313943    17A1     0.382186
       9B2     0.415974     9B1     0.415974    18A1     0.498546
      19A1     0.527604    10B2     0.529262    10B1     0.529262
      20A1     0.568812     4A2     0.568812    21A1     0.694249
      22A1     0.879773    11B2     0.928050    11B1     0.928050
      23A1     0.954059     5A2     0.954059    12B2     0.987927
      12B1     0.987927    24A1     1.091186    13B1     1.133037
      13B2     1.133037    25A1     1.166139     6A2     1.166139
      26A1     1.178874     7A2     1.178874    14B2     1.180000
      14B1     1.180000    15B2     1.190965    15B1     1.190965
      27A1     1.307883    16B2     1.341432    16B1     1.341432
      28A1     1.376651     8A2     1.376651    29A1     1.428778
      17B2     1.517654    17B1     1.517654    30A1     1.555704
      18B2     1.581104    18B1     1.581104     9A2     1.787544
      31A1     1.787544    32A1     1.896133    19B2     1.987261
      19B1     1.987261    33A1     2.117761    34A1     2.347646
      35A1     2.553225    10A2     2.553225    20B2     2.574914
      20B1     2.574914    36A1     2.766147    11A2     2.766147
      37A1     2.772060    21B2     2.780373    21B1     2.780373
      22B2     3.249624    22B1     3.249624    38A1     3.260552
      23B1     3.279960    23B2     3.279960    39A1     3.290527
      12A2     3.290527    40A1     3.378981    41A1     3.447523
      13A2     3.447523    24B2     3.464598    24B1     3.464598
      25B2     3.550476    25B1     3.550476    42A1     3.648868
      14A2     3.648868    43A1     3.965952    26B2     4.267640
      26B1     4.267640    44A1     4.366570    27B2     5.412583
      27B1     5.412583    28B2     6.288848    28B1     6.288848
      45A1     6.552880    15A2     6.634198    46A1     6.634198
      47A1     7.006603    29B2     7.039251    29B1     7.039251
      48A1     7.804424    30B1     8.251171    30B2     8.251171
      16A2     8.298746    49A1     8.298746    31B2     8.867859
      31B1     8.867859    17A2     8.877221    50A1     8.877221
      32B2     9.172496    32B1     9.172496    51A1     9.285785
      52A1     9.406618    53A1    10.652464    54A1    19.518732

    Beta Occupied:

       1A1   -92.385296     2A1    -9.379680     3A1    -7.062677
       1B2    -7.043107     1B1    -7.043107     4A1    -1.189833
       5A1    -0.860047

    Beta Virtual:

       2B1    -0.300722     2B2    -0.300722     6A1    -0.132834
       7A1    -0.082382     8A1    -0.076565     3B1    -0.064387
       3B2    -0.064387     9A1    -0.022502     4B1    -0.012865
       4B2    -0.012865     1A2     0.008143    10A1     0.008143
      11A1     0.081069     5B2     0.103219     5B1     0.103219
      12A1     0.107224    13A1     0.174046     6B1     0.214367
       6B2     0.214367    14A1     0.216343     7B1     0.246201
       7B2     0.246201     2A2     0.299937    15A1     0.299937
       3A2     0.320286    16A1     0.320286     8B2     0.325620
       8B1     0.325620    17A1     0.392990     9B2     0.424858
       9B1     0.424858    18A1     0.508723    10B1     0.536490
      10B2     0.536490    19A1     0.541314     4A2     0.574166
      20A1     0.574166    21A1     0.711896    22A1     0.893637
      11B1     0.949394    11B2     0.949394    12B1     1.026814
      12B2     1.026814     5A2     1.027921    23A1     1.027921
      24A1     1.109336    13B1     1.150942    13B2     1.150942
      25A1     1.186106     6A2     1.186106     7A2     1.219353
      26A1     1.219353    14B1     1.234536    14B2     1.234536
      15B1     1.247470    15B2     1.247470    27A1     1.316874
      16B2     1.355139    16B1     1.355139     8A2     1.388438
      28A1     1.388438    29A1     1.438016    17B1     1.525535
      17B2     1.525535    30A1     1.559072    18B2     1.587711
      18B1     1.587711     9A2     1.788398    31A1     1.788398
      32A1     1.913811    19B1     2.008198    19B2     2.008198
      33A1     2.129313    34A1     2.381119    10A2     2.570410
      35A1     2.570410    20B1     2.585710    20B2     2.585710
      36A1     2.776813    21B1     2.792408    21B2     2.792408
      11A2     2.795526    37A1     2.795526    22B1     3.268059
      22B2     3.268059    38A1     3.273746    12A2     3.337298
      39A1     3.337298    23B1     3.349316    23B2     3.349316
      40A1     3.398827    41A1     3.502695    13A2     3.502695
      24B2     3.505819    24B1     3.505819    25B1     3.572002
      25B2     3.572002    14A2     3.676877    42A1     3.676877
      43A1     3.974285    26B1     4.286465    26B2     4.286465
      44A1     4.377184    27B1     5.459542    27B2     5.459542
      28B2     6.289606    28B1     6.289606    45A1     6.559261
      15A2     6.637537    46A1     6.637537    47A1     7.007311
      29B1     7.042967    29B2     7.042967    48A1     7.802498
      30B1     8.250876    30B2     8.250876    16A2     8.297392
      49A1     8.297392    31B1     8.873601    31B2     8.873601
      17A2     8.902872    50A1     8.902872    32B1     9.180825
      32B2     9.180825    51A1     9.289189    52A1     9.410321
      53A1    10.657854    54A1    19.542188

    Final Occupation by Irrep:
             A1    A2    B1    B2
    DOCC [     5,    0,    1,    1 ]
    SOCC [     0,    0,    1,    1 ]

  Energy converged.

  @UHF Final Energy:  -397.77293533157416

   => Energetics <=

    Nuclear Repulsion Energy =              6.2394758042024119
    One-Electron Energy =                -556.0315577187288909
    Two-Electron Energy =                 152.0191465829523452
    PCM Polarization Energy =               0.0000000000000000
    Total Energy =                       -397.7729353315742173

    Alert: EFP and PCM quantities not currently incorporated into SCF psivars.
  UHF NO Occupations:
  HONO-2 :    5 A1 1.9898827
  HONO-1 :    2 B1 1.0000000
  HONO-0 :    2 B2 1.0000000
  LUNO+0 :    6 A1 0.0101173
  LUNO+1 :    7 A1 0.0010925
  LUNO+2 :    3 B1 0.0000044
  LUNO+3 :    3 B2 0.0000044

Properties will be evaluated at   0.000000,   0.000000,   0.000000 Bohr

Properties computed using the SCF density matrix

  Nuclear Dipole Moment: (a.u.)
     X:     0.0000      Y:     0.0000      Z:     1.2322

  Electronic Dipole Moment: (a.u.)
     X:     0.0000      Y:     0.0000      Z:    -0.7088

  Dipole Moment: (a.u.)
     X:     0.0000      Y:     0.0000      Z:     0.5234     Total:     0.5234

  Dipole Moment: (Debye)
     X:     0.0000      Y:     0.0000      Z:     1.3303     Total:     1.3303

*** tstop() called on cqc05 at Thu Aug 20 21:53:06 2020
Module time:
	user time   =       7.19 seconds =       0.12 minutes
	system time =       0.46 seconds =       0.01 minutes
	total time  =          7 seconds =       0.12 minutes
Total time:
	user time   =       7.19 seconds =       0.12 minutes
	system time =       0.46 seconds =       0.01 minutes
	total time  =          7 seconds =       0.12 minutes

*** tstart() called on cqc05
*** at Thu Aug 20 21:53:06 2020

	Wfn Parameters:
	--------------------
	Wavefunction         = CCSD
	Number of irreps     = 4
	Number of MOs        = 135
	Number of active MOs = 130
	AO-Basis             = NONE
	Semicanonical        = false
	Reference            = UHF
	Print Level          = 1

	IRREP	# MOs	# FZDC	# DOCC	# SOCC	# VIRT	# FZVR
	-----	-----	------	------	------	------	------
	 A1	   54	    3	    2	    0	    49	    0
	 A2	   17	    0	    0	    0	    17	    0
	 B1	   32	    1	    0	    1	    30	    0
	 B2	   32	    1	    0	    1	    30	    0
	Transforming integrals...
	IWL integrals will be deleted.
	(OO|OO)...
	Presorting SO-basis two-electron integrals.
	Sorting File: SO Ints (nn|nn) nbuckets = 1
	Transforming the one-electron integrals and constructing Fock matrices
	Starting AA/AB first half-transformation.
	Sorting AA/AB half-transformed integrals.
	Starting BB first half-transformation.
	Sorting BB half-transformed integrals.
	First half integral transformation complete.
	Starting AA second half-transformation.
	Starting AB second half-transformation.
	Starting BB second half-transformation.
	Two-electron integral transformation complete.
	(OO|OV)...
	Starting AA second half-transformation.
	Starting AB second half-transformation.
	Starting BB second half-transformation.
	Two-electron integral transformation complete.
	(OO|VV)...
	Starting AA second half-transformation.
	Starting AB second half-transformation.
	Starting BB second half-transformation.
	Two-electron integral transformation complete.
	(OV|OO)...
	Starting AA/AB first half-transformation.
	Sorting AA/AB half-transformed integrals.
	Starting BB first half-transformation.
	Sorting BB half-transformed integrals.
	First half integral transformation complete.
	Starting AA second half-transformation.
	Starting AB second half-transformation.
	Starting BB second half-transformation.
	Two-electron integral transformation complete.
	(OV|OV)...
	Starting AA second half-transformation.
	Starting AB second half-transformation.
	Starting BB second half-transformation.
	Two-electron integral transformation complete.
	(OV|VV)...
	Starting AA second half-transformation.
	Starting AB second half-transformation.
	Starting BB second half-transformation.
	Two-electron integral transformation complete.
	(VV|OO)...
	Starting AA/AB first half-transformation.
	Sorting AA/AB half-transformed integrals.
	Starting BB first half-transformation.
	Sorting BB half-transformed integrals.
	First half integral transformation complete.
	Starting AA second half-transformation.
	Starting AB second half-transformation.
	Starting BB second half-transformation.
	Two-electron integral transformation complete.
	(VV|OV)...
	Starting AA second half-transformation.
	Starting AB second half-transformation.
	Starting BB second half-transformation.
	Two-electron integral transformation complete.
	(VV|VV)...
	Starting AA second half-transformation.
	Starting AB second half-transformation.
	Starting BB second half-transformation.
	Two-electron integral transformation complete.
	Frozen core energy     =   -391.45326665042131

	Size of irrep 0 of <AB|CD> integrals:      4.761 (MW) /     38.089 (MB)
	Size of irrep 1 of <AB|CD> integrals:      3.003 (MW) /     24.026 (MB)
	Size of irrep 2 of <AB|CD> integrals:      3.920 (MW) /     31.363 (MB)
	Size of irrep 3 of <AB|CD> integrals:      3.920 (MW) /     31.363 (MB)
	Total:                                    15.605 (MW) /    124.842 (MB)

	Size of irrep 0 of <ab|cd> integrals:      5.027 (MW) /     40.213 (MB)
	Size of irrep 1 of <ab|cd> integrals:      3.218 (MW) /     25.747 (MB)
	Size of irrep 2 of <ab|cd> integrals:      4.186 (MW) /     33.489 (MB)
	Size of irrep 3 of <ab|cd> integrals:      4.186 (MW) /     33.489 (MB)
	Total:                                    16.617 (MW) /    132.938 (MB)

	Size of irrep 0 of <Ab|Cd> integrals:     20.703 (MW) /    165.620 (MB)
	Size of irrep 1 of <Ab|Cd> integrals:     12.433 (MW) /     99.461 (MB)
	Size of irrep 2 of <Ab|Cd> integrals:     16.209 (MW) /    129.669 (MB)
	Size of irrep 3 of <Ab|Cd> integrals:     16.209 (MW) /    129.669 (MB)
	Total:                                    65.553 (MW) /    524.420 (MB)

	Size of irrep 0 of <IA|BC> integrals:      0.709 (MW) /      5.675 (MB)
	Size of irrep 1 of <IA|BC> integrals:      0.326 (MW) /      2.606 (MB)
	Size of irrep 2 of <IA|BC> integrals:      0.499 (MW) /      3.992 (MB)
	Size of irrep 3 of <IA|BC> integrals:      0.499 (MW) /      3.992 (MB)
	Total:                                     2.033 (MW) /     16.265 (MB)

	Size of irrep 0 of <ia|bc> integrals:      0.452 (MW) /      3.616 (MB)
	Size of irrep 1 of <ia|bc> integrals:      0.122 (MW) /      0.976 (MB)
	Size of irrep 2 of <ia|bc> integrals:      0.254 (MW) /      2.030 (MB)
	Size of irrep 3 of <ia|bc> integrals:      0.254 (MW) /      2.030 (MB)
	Total:                                     1.081 (MW) /      8.651 (MB)

	Size of irrep 0 of <Ia|Bc> integrals:      0.728 (MW) /      5.824 (MB)
	Size of irrep 1 of <Ia|Bc> integrals:      0.338 (MW) /      2.708 (MB)
	Size of irrep 2 of <Ia|Bc> integrals:      0.515 (MW) /      4.123 (MB)
	Size of irrep 3 of <Ia|Bc> integrals:      0.515 (MW) /      4.123 (MB)
	Total:                                     2.097 (MW) /     16.777 (MB)

	Size of irrep 0 of <iA|bC> integrals:      0.446 (MW) /      3.567 (MB)
	Size of irrep 1 of <iA|bC> integrals:      0.120 (MW) /      0.959 (MB)
	Size of irrep 2 of <iA|bC> integrals:      0.242 (MW) /      1.932 (MB)
	Size of irrep 3 of <iA|bC> integrals:      0.242 (MW) /      1.932 (MB)
	Total:                                     1.049 (MW) /      8.391 (MB)

	Size of irrep 0 of tIjAb amplitudes:       0.018 (MW) /      0.146 (MB)
	Size of irrep 1 of tIjAb amplitudes:       0.000 (MW) /      0.000 (MB)
	Size of irrep 2 of tIjAb amplitudes:       0.008 (MW) /      0.064 (MB)
	Size of irrep 3 of tIjAb amplitudes:       0.008 (MW) /      0.064 (MB)
	Total:                                     0.034 (MW) /      0.274 (MB)

	Nuclear Rep. energy          =      6.23947580420241
	SCF energy                   =   -397.77293533157416
	One-electron energy          =    -19.11066820785480
	Two-electron (AA) energy     =      2.38367848180884
	Two-electron (BB) energy     =      0.34978235859436
	Two-electron (AB) energy     =      3.81806288209669
	Two-electron energy          =      6.55152372249989
	Reference energy             =   -397.77293533157382

*** tstop() called on cqc05 at Thu Aug 20 21:53:17 2020
Module time:
	user time   =       6.16 seconds =       0.10 minutes
	system time =       4.26 seconds =       0.07 minutes
	total time  =         11 seconds =       0.18 minutes
Total time:
	user time   =      13.35 seconds =       0.22 minutes
	system time =       4.72 seconds =       0.08 minutes
	total time  =         18 seconds =       0.30 minutes

*** tstart() called on cqc05
*** at Thu Aug 20 21:53:17 2020

            **************************
            *                        *
            *        CCENERGY        *
            *                        *
            **************************

    Nuclear Rep. energy (wfn)     =    6.239475804202412
    SCF energy          (wfn)     = -397.772935331574161
    Reference energy    (file100) = -397.772935331573819

    Input parameters:
    -----------------
    Wave function   =     CCSD
    Reference wfn   =     UHF
    Brueckner       =     No
    Memory (Mbytes) =     250000.0
    Maxiter         =     50
    R_Convergence   =     1.0e-07
    E_Convergence   =     1.0e-06
    Restart         =     Yes
    DIIS            =     Yes
    AO Basis        =     NONE
    ABCD            =     NEW
    Cache Level     =     2
    Cache Type      =     LRU
    Print Level     =     1
    Num. of threads =     4
    # Amps to Print =     10
    Print MP2 Amps? =     No
    Analyze T2 Amps =     No
    Print Pair Ener =     No
    Local CC        =     No
    SCS-MP2         =     False
    SCSN-MP2        =     False
    SCS-CCSD        =     False

MP2 correlation energy -0.1251123885930953
                Solving CC Amplitude Equations
                ------------------------------
  Iter             Energy              RMS        T1Diag      D1Diag    New D1Diag    D2Diag
  ----     ---------------------    ---------   ----------  ----------  ----------   --------
     0        -0.125112388593095    0.000e+00    0.000000    0.000000    0.000000    0.000000
     1        -0.141471452752459    4.882e-02    0.010623    0.000000    0.000000    0.000000
     2        -0.148146668653457    1.929e-02    0.017761    0.000000    0.000000    0.000000
     3        -0.148475732787755    5.060e-03    0.020202    0.000000    0.000000    0.000000
     4        -0.148491077756775    1.339e-03    0.020668    0.000000    0.000000    0.000000
     5        -0.148484145186107    5.016e-04    0.020804    0.000000    0.000000    0.000000
     6        -0.148484036070282    1.514e-04    0.020827    0.000000    0.000000    0.000000
     7        -0.148485631573784    4.200e-05    0.020830    0.000000    0.000000    0.000000
     8        -0.148485695555809    1.287e-05    0.020832    0.000000    0.000000    0.000000
     9        -0.148485507314130    4.907e-06    0.020832    0.000000    0.000000    0.000000
    10        -0.148485508701831    2.117e-06    0.020832    0.000000    0.000000    0.000000
    11        -0.148485507330854    7.460e-07    0.020832    0.000000    0.000000    0.000000
    12        -0.148485518405696    2.221e-07    0.020832    0.000000    0.000000    0.000000
    13        -0.148485516272619    6.721e-08    0.020832    0.000000    0.000000    0.000000
    13        -0.148485516272619    6.721e-08    0.020832    0.000000    0.000000    0.000000

    Iterations converged.

    CCSD corr. energy   =   -0.148485516272619
    PPL corr. energy    =    0.043818080034530
    OS PPL corr. energy =    0.037580759031743
    SS PPL corr. energy =    0.006237321002787
    Largest TIA Amplitudes:
              1   1         0.0123831625
              1   0        -0.0096315109
              1  11        -0.0082543475
              0   1         0.0078763102
              1   8        -0.0067938845
              1  18         0.0062307456
              0   8        -0.0056306327
              3  97         0.0049920609
              2  67         0.0049920600
              1   7        -0.0046318058

    Largest Tia Amplitudes:
              0   1         0.0252776097
              0   0        -0.0172564080
              1   1        -0.0140270950

      * MP2 total energy                      = -397.898047720166915
      * CCSD total energy                     = -397.921420847846434
*** Psi4 exiting successfully. Buy a developer a beer!
