                               Psi4 1.2a1.dev938

  ==> Input File <==

--------------------------------------------------------------------------
# Any line starting with the # character is a comment line
memory 250000 mb
molecule molecule{
1 3
S          0.0000000000        0.0000000000       -0.0413619065
H          0.0000000000        0.0000000000        1.3156167249
}

set {
  reference uhf
  basis aug-cc-pv(t+d)z
  scf_type OUT_OF_CORE
  freeze_core true
}

energy('ccsd')
--------------------------------------------------------------------------

    Molecular point group: c2v

    Geometry (in Angstrom), charge = 1, multiplicity = 3:

       Center              X                  Y                   Z               Mass
    ------------   -----------------  -----------------  -----------------  -----------------
           S          0.000000000000     0.000000000000    -0.041467596848    31.972070999000
           H          0.000000000000     0.000000000000     1.315511034552     1.007825032070

  Charge       = 1
  Multiplicity = 3
  Basis Set: AUG-CC-PV(T+D)Z
    Blend: AUG-CC-PV(T+D)Z

    Orbital Energies (a.u.)
    -----------------------

    Alpha Occupied:

       1A1   -92.406814     2A1    -9.402290     1B2    -7.094719
       1B1    -7.094719     3A1    -7.073737     4A1    -1.388828
       5A1    -0.898946     2B2    -0.834952     2B1    -0.834952

    Alpha Virtual:

       6A1    -0.148849     7A1    -0.098931     3B2    -0.073433
       3B1    -0.073433     8A1    -0.073066     9A1    -0.017559
       4B1    -0.017012     4B2    -0.017012     1A2    -0.007645
      10A1    -0.007645    11A1     0.112986     5B2     0.149156
       5B1     0.149156    12A1     0.184999    13A1     0.268121
       6B1     0.270487     6B2     0.270487    14A1     0.319986
      15A1     0.351047     2A2     0.351047     7B1     0.363593
       7B2     0.363593     3A2     0.524813    16A1     0.524813
      17A1     0.543187     8B2     0.552230     8B1     0.552230
       9B2     0.619995     9B1     0.619995    18A1     0.744478
      19A1     0.786281     4A2     0.827545    20A1     0.827545
      10B2     0.830178    10B1     0.830178    21A1     1.171966
      11B2     1.294576    11B1     1.294576    22A1     1.377780
       5A2     1.538064    23A1     1.538064    12B1     1.583835
      12B2     1.583835    24A1     1.755006    13B2     1.945130
      13B1     1.945130    14B2     1.959133    14B1     1.959133
       6A2     1.962181    25A1     1.962181    26A1     2.085890
      15B2     2.229848    15B1     2.229848    27A1     2.564631
      28A1     3.043006     7A2     3.612370    29A1     3.612370
      16B2     3.956116    16B1     3.956116    17B2     4.118580
      17B1     4.118580    30A1     4.215598    31A1     4.613013
      32A1     5.721115     8A2     6.898151    33A1     6.898151
      18B2     6.991166    18B1     6.991166    34A1     8.000618

    Beta Occupied:

       1A1   -92.386390     2A1    -9.380086     3A1    -7.062751
       1B2    -7.043424     1B1    -7.043424     4A1    -1.189931
       5A1    -0.859901

    Beta Virtual:

       2B1    -0.300910     2B2    -0.300910     6A1    -0.132747
       7A1    -0.077509     8A1    -0.070899     3B2    -0.057685
       3B1    -0.057685     9A1    -0.010338     4B1     0.010948
       4B2     0.010948    10A1     0.050407     1A2     0.050407
      11A1     0.123621     5B2     0.163202     5B1     0.163202
      12A1     0.197187    13A1     0.277589     6B1     0.325524
       6B2     0.325524    14A1     0.330879     7B1     0.412715
       7B2     0.412715     2A2     0.460004    15A1     0.460004
      16A1     0.544596     3A2     0.544596    17A1     0.565335
       8B2     0.583240     8B1     0.583240     9B2     0.633629
       9B1     0.633629    18A1     0.764775    19A1     0.793284
      20A1     0.837424     4A2     0.837424    10B2     0.837760
      10B1     0.837760    21A1     1.209132    11B2     1.315481
      11B1     1.315481    22A1     1.388812     5A2     1.597085
      23A1     1.597085    12B1     1.615104    12B2     1.615104
      24A1     1.762663     6A2     2.016418    25A1     2.016418
      13B2     2.018330    13B1     2.018330    14B1     2.026658
      14B2     2.026658    26A1     2.108152    15B2     2.276160
      15B1     2.276160    27A1     2.578135    28A1     3.045118
      29A1     3.614617     7A2     3.614617    16B2     3.961231
      16B1     3.961231    17B2     4.116500    17B1     4.116500
      30A1     4.215788    31A1     4.621882    32A1     5.747219
       8A2     6.921900    33A1     6.921900    18B2     7.005100
      18B1     7.005100    34A1     8.012200

    Final Occupation by Irrep:
             A1    A2    B1    B2
    DOCC [     5,    0,    1,    1 ]
    SOCC [     0,    0,    1,    1 ]

  Energy converged.

  @UHF Final Energy:  -397.76971676656092

   => Energetics <=

    Nuclear Repulsion Energy =              6.2394758042024119
    One-Electron Energy =                -556.0225199771948610
    Two-Electron Energy =                 152.0133274064315856
    PCM Polarization Energy =               0.0000000000000000
    Total Energy =                       -397.7697167665609186

    Alert: EFP and PCM quantities not currently incorporated into SCF psivars.
  UHF NO Occupations:
  HONO-2 :    5 A1 1.9899652
  HONO-1 :    2 B1 1.0000000
  HONO-0 :    2 B2 1.0000000
  LUNO+0 :    6 A1 0.0100348
  LUNO+1 :    7 A1 0.0010883
  LUNO+2 :    3 B1 0.0000036
  LUNO+3 :    3 B2 0.0000036

Properties will be evaluated at   0.000000,   0.000000,   0.000000 Bohr

Properties computed using the SCF density matrix

  Nuclear Dipole Moment: (a.u.)
     X:     0.0000      Y:     0.0000      Z:     1.2322

  Electronic Dipole Moment: (a.u.)
     X:     0.0000      Y:     0.0000      Z:    -0.7080

  Dipole Moment: (a.u.)
     X:     0.0000      Y:     0.0000      Z:     0.5241     Total:     0.5241

  Dipole Moment: (Debye)
     X:     0.0000      Y:     0.0000      Z:     1.3322     Total:     1.3322

*** tstop() called on cqc05 at Thu Aug 20 20:06:19 2020
Module time:
	user time   =       1.51 seconds =       0.03 minutes
	system time =       0.05 seconds =       0.00 minutes
	total time  =          1 seconds =       0.02 minutes
Total time:
	user time   =       1.51 seconds =       0.03 minutes
	system time =       0.05 seconds =       0.00 minutes
	total time  =          1 seconds =       0.02 minutes

*** tstart() called on cqc05
*** at Thu Aug 20 20:06:19 2020

	Wfn Parameters:
	--------------------
	Wavefunction         = CCSD
	Number of irreps     = 4
	Number of MOs        = 78
	Number of active MOs = 73
	AO-Basis             = NONE
	Semicanonical        = false
	Reference            = UHF
	Print Level          = 1

	IRREP	# MOs	# FZDC	# DOCC	# SOCC	# VIRT	# FZVR
	-----	-----	------	------	------	------	------
	 A1	   34	    3	    2	    0	    29	    0
	 A2	   8	    0	    0	    0	    8	    0
	 B1	   18	    1	    0	    1	    16	    0
	 B2	   18	    1	    0	    1	    16	    0
	Transforming integrals...
	IWL integrals will be deleted.
	(OO|OO)...
	Presorting SO-basis two-electron integrals.
	Sorting File: SO Ints (nn|nn) nbuckets = 1
	Transforming the one-electron integrals and constructing Fock matrices
	Starting AA/AB first half-transformation.
	Sorting AA/AB half-transformed integrals.
	Starting BB first half-transformation.
	Sorting BB half-transformed integrals.
	First half integral transformation complete.
	Starting AA second half-transformation.
	Starting AB second half-transformation.
	Starting BB second half-transformation.
	Two-electron integral transformation complete.
	(OO|OV)...
	Starting AA second half-transformation.
	Starting AB second half-transformation.
	Starting BB second half-transformation.
	Two-electron integral transformation complete.
	(OO|VV)...
	Starting AA second half-transformation.
	Starting AB second half-transformation.
	Starting BB second half-transformation.
	Two-electron integral transformation complete.
	(OV|OO)...
	Starting AA/AB first half-transformation.
	Sorting AA/AB half-transformed integrals.
	Starting BB first half-transformation.
	Sorting BB half-transformed integrals.
	First half integral transformation complete.
	Starting AA second half-transformation.
	Starting AB second half-transformation.
	Starting BB second half-transformation.
	Two-electron integral transformation complete.
	(OV|OV)...
	Starting AA second half-transformation.
	Starting AB second half-transformation.
	Starting BB second half-transformation.
	Two-electron integral transformation complete.
	(OV|VV)...
	Starting AA second half-transformation.
	Starting AB second half-transformation.
	Starting BB second half-transformation.
	Two-electron integral transformation complete.
	(VV|OO)...
	Starting AA/AB first half-transformation.
	Sorting AA/AB half-transformed integrals.
	Starting BB first half-transformation.
	Sorting BB half-transformed integrals.
	First half integral transformation complete.
	Starting AA second half-transformation.
	Starting AB second half-transformation.
	Starting BB second half-transformation.
	Two-electron integral transformation complete.
	(VV|OV)...
	Starting AA second half-transformation.
	Starting AB second half-transformation.
	Starting BB second half-transformation.
	Two-electron integral transformation complete.
	(VV|VV)...
	Starting AA second half-transformation.
	Starting AB second half-transformation.
	Starting BB second half-transformation.
	Two-electron integral transformation complete.
	Frozen core energy     =   -391.45097561426479

	Size of irrep 0 of <AB|CD> integrals:      0.454 (MW) /      3.634 (MB)
	Size of irrep 1 of <AB|CD> integrals:      0.238 (MW) /      1.905 (MB)
	Size of irrep 2 of <AB|CD> integrals:      0.350 (MW) /      2.804 (MB)
	Size of irrep 3 of <AB|CD> integrals:      0.350 (MW) /      2.804 (MB)
	Total:                                     1.393 (MW) /     11.147 (MB)

	Size of irrep 0 of <ab|cd> integrals:      0.498 (MW) /      3.987 (MB)
	Size of irrep 1 of <ab|cd> integrals:      0.271 (MW) /      2.172 (MB)
	Size of irrep 2 of <ab|cd> integrals:      0.396 (MW) /      3.165 (MB)
	Size of irrep 3 of <ab|cd> integrals:      0.396 (MW) /      3.165 (MB)
	Total:                                     1.561 (MW) /     12.489 (MB)

	Size of irrep 0 of <Ab|Cd> integrals:      2.100 (MW) /     16.797 (MB)
	Size of irrep 1 of <Ab|Cd> integrals:      1.016 (MW) /      8.129 (MB)
	Size of irrep 2 of <Ab|Cd> integrals:      1.491 (MW) /     11.927 (MB)
	Size of irrep 3 of <Ab|Cd> integrals:      1.491 (MW) /     11.927 (MB)
	Total:                                     6.097 (MW) /     48.779 (MB)

	Size of irrep 0 of <IA|BC> integrals:      0.128 (MW) /      1.020 (MB)
	Size of irrep 1 of <IA|BC> integrals:      0.047 (MW) /      0.375 (MB)
	Size of irrep 2 of <IA|BC> integrals:      0.082 (MW) /      0.654 (MB)
	Size of irrep 3 of <IA|BC> integrals:      0.082 (MW) /      0.654 (MB)
	Total:                                     0.338 (MW) /      2.702 (MB)

	Size of irrep 0 of <ia|bc> integrals:      0.086 (MW) /      0.688 (MB)
	Size of irrep 1 of <ia|bc> integrals:      0.017 (MW) /      0.133 (MB)
	Size of irrep 2 of <ia|bc> integrals:      0.043 (MW) /      0.342 (MB)
	Size of irrep 3 of <ia|bc> integrals:      0.043 (MW) /      0.342 (MB)
	Total:                                     0.188 (MW) /      1.506 (MB)

	Size of irrep 0 of <Ia|Bc> integrals:      0.133 (MW) /      1.066 (MB)
	Size of irrep 1 of <Ia|Bc> integrals:      0.050 (MW) /      0.403 (MB)
	Size of irrep 2 of <Ia|Bc> integrals:      0.087 (MW) /      0.694 (MB)
	Size of irrep 3 of <Ia|Bc> integrals:      0.087 (MW) /      0.694 (MB)
	Total:                                     0.357 (MW) /      2.857 (MB)

	Size of irrep 0 of <iA|bC> integrals:      0.084 (MW) /      0.672 (MB)
	Size of irrep 1 of <iA|bC> integrals:      0.016 (MW) /      0.129 (MB)
	Size of irrep 2 of <iA|bC> integrals:      0.039 (MW) /      0.313 (MB)
	Size of irrep 3 of <iA|bC> integrals:      0.039 (MW) /      0.313 (MB)
	Total:                                     0.178 (MW) /      1.427 (MB)

	Size of irrep 0 of tIjAb amplitudes:       0.006 (MW) /      0.046 (MB)
	Size of irrep 1 of tIjAb amplitudes:       0.000 (MW) /      0.000 (MB)
	Size of irrep 2 of tIjAb amplitudes:       0.002 (MW) /      0.020 (MB)
	Size of irrep 3 of tIjAb amplitudes:       0.002 (MW) /      0.020 (MB)
	Total:                                     0.011 (MW) /      0.085 (MB)

	Nuclear Rep. energy          =      6.23947580420241
	SCF energy                   =   -397.76971676656092
	One-electron energy          =    -19.10892324699270
	Two-electron (AA) energy     =      2.38347452452107
	Two-electron (BB) energy     =      0.34979350654100
	Two-electron (AB) energy     =      3.81743825943020
	Two-electron energy          =      6.55070629049227
	Reference energy             =   -397.76971676656279

*** tstop() called on cqc05 at Thu Aug 20 20:06:20 2020
Module time:
	user time   =       0.63 seconds =       0.01 minutes
	system time =       0.36 seconds =       0.01 minutes
	total time  =          1 seconds =       0.02 minutes
Total time:
	user time   =       2.14 seconds =       0.04 minutes
	system time =       0.41 seconds =       0.01 minutes
	total time  =          2 seconds =       0.03 minutes

*** tstart() called on cqc05
*** at Thu Aug 20 20:06:20 2020

            **************************
            *                        *
            *        CCENERGY        *
            *                        *
            **************************

    Nuclear Rep. energy (wfn)     =    6.239475804202412
    SCF energy          (wfn)     = -397.769716766560919
    Reference energy    (file100) = -397.769716766562794

    Input parameters:
    -----------------
    Wave function   =     CCSD
    Reference wfn   =     UHF
    Brueckner       =     No
    Memory (Mbytes) =     250000.0
    Maxiter         =     50
    R_Convergence   =     1.0e-07
    E_Convergence   =     1.0e-06
    Restart         =     Yes
    DIIS            =     Yes
    AO Basis        =     NONE
    ABCD            =     NEW
    Cache Level     =     2
    Cache Type      =     LRU
    Print Level     =     1
    Num. of threads =     4
    # Amps to Print =     10
    Print MP2 Amps? =     No
    Analyze T2 Amps =     No
    Print Pair Ener =     No
    Local CC        =     No
    SCS-MP2         =     False
    SCSN-MP2        =     False
    SCS-CCSD        =     False

MP2 correlation energy -0.1165143552283460
                Solving CC Amplitude Equations
                ------------------------------
  Iter             Energy              RMS        T1Diag      D1Diag    New D1Diag    D2Diag
  ----     ---------------------    ---------   ----------  ----------  ----------   --------
     0        -0.116514355228346    0.000e+00    0.000000    0.000000    0.000000    0.000000
     1        -0.134579496106502    4.990e-02    0.010102    0.000000    0.000000    0.000000
     2        -0.141434528854881    1.962e-02    0.017305    0.000000    0.000000    0.000000
     3        -0.141816911912718    5.201e-03    0.019891    0.000000    0.000000    0.000000
     4        -0.141829884785216    1.276e-03    0.020331    0.000000    0.000000    0.000000
     5        -0.141823517835774    4.955e-04    0.020473    0.000000    0.000000    0.000000
     6        -0.141823648968024    1.450e-04    0.020491    0.000000    0.000000    0.000000
     7        -0.141825269444547    3.430e-05    0.020495    0.000000    0.000000    0.000000
     8        -0.141825165463148    1.103e-05    0.020496    0.000000    0.000000    0.000000
     9        -0.141825018322542    4.086e-06    0.020497    0.000000    0.000000    0.000000
    10        -0.141825018605487    1.832e-06    0.020497    0.000000    0.000000    0.000000
    11        -0.141825024959207    5.861e-07    0.020497    0.000000    0.000000    0.000000
    12        -0.141825022793338    1.844e-07    0.020497    0.000000    0.000000    0.000000
    13        -0.141825018777957    6.658e-08    0.020497    0.000000    0.000000    0.000000
    13        -0.141825018777957    6.658e-08    0.020497    0.000000    0.000000    0.000000

    Iterations converged.

    CCSD corr. energy   =   -0.141825018777957
    PPL corr. energy    =    0.039790227875813
    OS PPL corr. energy =    0.033877159346943
    SS PPL corr. energy =    0.005913068528870
    Largest TIA Amplitudes:
              1   1        -0.0123679346
              1  11         0.0107186522
              1   0        -0.0088415048
              0   1        -0.0078092359
              1   8         0.0071213063
              1   5        -0.0060837975
              2  38        -0.0053752385
              3  54        -0.0053752385
              0   5        -0.0041380273
              1   2         0.0039746204

    Largest Tia Amplitudes:
              0   1        -0.0250274824
              0   0        -0.0163849612
              1   1         0.0157005512
              0   5        -0.0115155786
              1   0         0.0099868521
              0  11         0.0088619510
              1   5         0.0079143800
              0   6         0.0074925025
              0   7         0.0073325778
              0   8        -0.0065115959

    Largest TIJAB Amplitudes:
      3   2  29   4        -0.0324771671
      3   2  29   9        -0.0273270195
      3   2  30   4        -0.0273270195
      3   2  30   9        -0.0270619506
      2   1  38   1         0.0253948901
      3   1  54   1         0.0253948901
      2   1  41   1        -0.0206253354
      3   1  57   1        -0.0206253354
      2   1  38   0         0.0193024838
      3   1  54   0         0.0193024838

    Largest Tijab Amplitudes:
      1   0  42  37         0.0136414681
      1   0  59  54         0.0136414681
      1   0  39  37        -0.0129672929
      1   0  56  54        -0.0129672929
      1   0  11   1        -0.0056227085
      1   0  42  41        -0.0047834799
      1   0  59  58        -0.0047834799
      1   0  40  37         0.0047613167
      1   0  57  54         0.0047613167
      1   0   5   0         0.0046329887

    Largest TIjAb Amplitudes:
      1   1   1   1        -0.0526512492
      1   1   0   1        -0.0499209870
      2   0   4  37        -0.0426549963
      2   0  29  54        -0.0426549963
      3   0   4  54         0.0426549963

      * MP2 total energy                      = -397.886231121791127
      * CCSD total energy                     = -397.911541785340773
*** Psi4 exiting successfully. Buy a developer a beer!
