                               Psi4 1.2a1.dev939

  ==> Input File <==

--------------------------------------------------------------------------
# Any line starting with the # character is a comment line

memory 32000 mb

molecule molecule {
0 1
C          0.0000000000        0.0000000000        0.6060788671
H          0.0000000000        0.0000000000        1.6678001967
C          0.0000000000        0.0000000000       -0.6060788671
H          0.0000000000        0.0000000000       -1.6678001967
}

set {
  reference rhf

  basis aug-cc-pv(5+d)z
  scf_type OUT_OF_CORE
  freeze_core true
}

energy('ccsd')
--------------------------------------------------------------------------

    Molecular point group: d2h

    Geometry (in Angstrom), charge = 0, multiplicity = 1:

       Center              X                  Y                   Z               Mass
    ------------   -----------------  -----------------  -----------------  -----------------
           C          0.000000000000     0.000000000000     0.606078867100    12.000000000000
           H          0.000000000000     0.000000000000     1.667800196700     1.007825032070
           C          0.000000000000     0.000000000000    -0.606078867100    12.000000000000
           H          0.000000000000     0.000000000000    -1.667800196700     1.007825032070

  Charge       = 0
  Multiplicity = 1
  Basis Set: AUG-CC-PV(5+D)Z
    Blend: AUG-CC-PV(5+D)Z

    Orbital Energies (a.u.)
    -----------------------

    Doubly Occupied:

       1Ag   -11.245509     1B1u  -11.241897     2Ag    -1.027772
       2B1u   -0.769523     3Ag    -0.681731     1B3u   -0.409144
       1B2u   -0.409144

  @RHF Final Energy:   -76.85443860288811

   => Energetics <=

    Nuclear Repulsion Energy =             24.6483481108933233
    One-Electron Energy =                -151.4361313723938736
    Two-Electron Energy =                  49.9333446586124552
    PCM Polarization Energy =               0.0000000000000000
    Total Energy =                        -76.8544386028880950
      * MP2 total energy                      =  -77.193209096340183
      * CCSD total energy                     =  -77.197960364767653
*** Psi4 exiting successfully. Buy a developer a beer!
