                               Psi4 1.2a1.dev939

  ==> Input File <==

--------------------------------------------------------------------------
# Any line starting with the # character is a comment line

memory 32000 mb

molecule molecule {
0 1
C          0.0000000000        0.0000000000        0.6060788671
H          0.0000000000        0.0000000000        1.6678001967
C          0.0000000000        0.0000000000       -0.6060788671
H          0.0000000000        0.0000000000       -1.6678001967
}

set {
  reference rhf

  basis aug-cc-pv(6+d)z
  scf_type OUT_OF_CORE
  freeze_core true
}

energy('ccsd')
--------------------------------------------------------------------------

    Molecular point group: d2h

    Geometry (in Angstrom), charge = 0, multiplicity = 1:

       Center              X                  Y                   Z               Mass
    ------------   -----------------  -----------------  -----------------  -----------------
           C          0.000000000000     0.000000000000     0.606078867100    12.000000000000
           H          0.000000000000     0.000000000000     1.667800196700     1.007825032070
           C          0.000000000000     0.000000000000    -0.606078867100    12.000000000000
           H          0.000000000000     0.000000000000    -1.667800196700     1.007825032070

  Charge       = 0
  Multiplicity = 1
  Basis Set: AUG-CC-PV(6+D)Z
    Blend: AUG-CC-PV(6+D)Z

    Orbital Energies (a.u.)
    -----------------------

    Doubly Occupied:

       1Ag   -11.245494     1B1u  -11.241882     2Ag    -1.027763
       2B1u   -0.769522     3Ag    -0.681735     1B2u   -0.409142
       1B3u   -0.409142

  @RHF Final Energy:   -76.85456544991683

   => Energetics <=

    Nuclear Repulsion Energy =             24.6483481108933162
    One-Electron Energy =                -151.4364673616658195
    Two-Electron Energy =                  49.9335538008556696
    Total Energy =                        -76.8545654499168336
      * MP2 total energy                      =  -77.196303498586914
      * CCSD total energy                     =  -77.199762568471755
*** Psi4 exiting successfully. Buy a developer a beer!
