                               Psi4 1.2a1.dev939

  ==> Input File <==

--------------------------------------------------------------------------
# Any line starting with the # character is a comment line

memory 32000 mb

molecule molecule {
0 1
C          0.0000000000        0.0000000000        0.6060788671
H          0.0000000000        0.0000000000        1.6678001967
C          0.0000000000        0.0000000000       -0.6060788671
H          0.0000000000        0.0000000000       -1.6678001967
}

set {
  reference rhf
  basis aug-cc-pv(D+d)z
  scf_type OUT_OF_CORE
  freeze_core true
}

energy('ccsd')
--------------------------------------------------------------------------

    Molecular point group: d2h

    Geometry (in Angstrom), charge = 0, multiplicity = 1:

       Center              X                  Y                   Z               Mass
    ------------   -----------------  -----------------  -----------------  -----------------
           C          0.000000000000     0.000000000000     0.606078867100    12.000000000000
           H          0.000000000000     0.000000000000     1.667800196700     1.007825032070
           C          0.000000000000     0.000000000000    -0.606078867100    12.000000000000
           H          0.000000000000     0.000000000000    -1.667800196700     1.007825032070

  Charge       = 0
  Multiplicity = 1
  Basis Set: AUG-CC-PV(D+D)Z
    Blend: AUG-CC-PV(D+D)Z

    Orbital Energies (a.u.)
    -----------------------

    Doubly Occupied:

       1Ag   -11.256228     1B1u  -11.252714     2Ag    -1.031484
       2B1u   -0.770110     3Ag    -0.681089     1B3u   -0.409097
       1B2u   -0.409097

  @RHF Final Energy:   -76.82784258402829

   => Energetics <=

    Nuclear Repulsion Energy =             24.6483481108933233
    One-Electron Energy =                -151.3327409207242908
    Two-Electron Energy =                  49.8565502258026783
    Total Energy =                        -76.8278425840282893
      * MP2 total energy                      =  -77.092055801234153
      * CCSD total energy                     =  -77.107933308457135
*** Psi4 exiting successfully. Buy a developer a beer!
