                               Psi4 1.2a1.dev939

  ==> Input File <==

--------------------------------------------------------------------------
# Any line starting with the # character is a comment line

memory 32000 mb

molecule molecule {
0 1
O          0.0000000000        0.0000000000       -0.4883910965
C          0.0000000000        0.0000000000        0.6505673556
}

set {
  reference rhf
  basis aug-cc-pv(Q+d)z
  scf_type OUT_OF_CORE
  freeze_core true
}

energy('ccsd')
--------------------------------------------------------------------------

    Molecular point group: c2v

    Geometry (in Angstrom), charge = 0, multiplicity = 1:

       Center              X                  Y                   Z               Mass
    ------------   -----------------  -----------------  -----------------  -----------------
           O          0.000000000000     0.000000000000    -0.488213720632    15.994914619560
           C          0.000000000000     0.000000000000     0.650744731468    12.000000000000

  Charge       = 0
  Multiplicity = 1
  Basis Set: AUG-CC-PV(Q+D)Z
    Blend: AUG-CC-PV(Q+D)Z

    Orbital Energies (a.u.)
    -----------------------

    Doubly Occupied:

       1A1   -20.665722     2A1   -11.365273     3A1    -1.514406
       4A1    -0.803695     1B2    -0.635727     1B1    -0.635727
       5A1    -0.556139

  @RHF Final Energy:  -112.78738968351129

   => Energetics <=

    Nuclear Repulsion Energy =             22.3015211533720219
    One-Electron Energy =                -197.8244402979730694
    Two-Electron Energy =                  62.7355294610897545
    Total Energy =                       -112.7873896835112930
      * MP2 total energy                      = -113.172892894329252
      * CCSD total energy                     = -113.171183312686836
*** Psi4 exiting successfully. Buy a developer a beer!
