                               Psi4 1.2a1.dev939

  ==> Input File <==

--------------------------------------------------------------------------
# Any line starting with the # character is a comment line

memory 32000 mb

molecule molecule {
0 1
O          0.0000000000        0.0000000000       -0.4883910965
C          0.0000000000        0.0000000000        0.6505673556
}

set {
  reference rhf

  basis aug-cc-pv(6+d)z
  scf_type OUT_OF_CORE
  freeze_core true
}

energy('ccsd')
--------------------------------------------------------------------------

    Molecular point group: c2v

    Geometry (in Angstrom), charge = 0, multiplicity = 1:

       Center              X                  Y                   Z               Mass
    ------------   -----------------  -----------------  -----------------  -----------------
           O          0.000000000000     0.000000000000    -0.488213720632    15.994914619560
           C          0.000000000000     0.000000000000     0.650744731468    12.000000000000

  Charge       = 0
  Multiplicity = 1
  Basis Set: AUG-CC-PV(6+D)Z
    Blend: AUG-CC-PV(6+D)Z

    Orbital Energies (a.u.)
    -----------------------

    Doubly Occupied:

       1A1   -20.664898     2A1   -11.364923     3A1    -1.514073
       4A1    -0.803594     1B2    -0.635704     1B1    -0.635704
       5A1    -0.556141

  @RHF Final Energy:  -112.78918954228430

   => Energetics <=

    Nuclear Repulsion Energy =             22.3015211533720219
    One-Electron Energy =                -197.8313473692752211
    Two-Electron Energy =                  62.7406366736188943
    PCM Polarization Energy =               0.0000000000000000
    Total Energy =                       -112.7891895422843049
      * MP2 total energy                      = -113.188318524513477
      * CCSD total energy                     = -113.182521687238463
*** Psi4 exiting successfully. Buy a developer a beer!
