                               Psi4 1.2a1.dev939

  ==> Input File <==

--------------------------------------------------------------------------
# Any line starting with the # character is a comment line

memory 32000 mb

molecule molecule {
0 1
C          0.0000000000        0.0000000000        0.7621175845
C         -0.0000000000        0.0000000000       -0.7621175845
H          1.0154843253        0.0000000000        1.1559854175
H         -0.5077421626        0.8794352228        1.1559854175
H         -0.5077421626       -0.8794352228        1.1559854175
H          0.5077421626        0.8794352228       -1.1559854175
H          0.5077421626       -0.8794352228       -1.1559854175
H         -1.0154843253        0.0000000000       -1.1559854175
}

set {
  reference rhf
  basis aug-cc-pv(T+d)z
  scf_type OUT_OF_CORE
  freeze_core true
}

energy('ccsd')
--------------------------------------------------------------------------

    Molecular point group: c2h

    Geometry (in Angstrom), charge = 0, multiplicity = 1:

       Center              X                  Y                   Z               Mass
    ------------   -----------------  -----------------  -----------------  -----------------
           C          0.000000000000    -0.762117584500     0.000000000000    12.000000000000
           C         -0.000000000000     0.762117584500     0.000000000000    12.000000000000
           H          0.507742162639    -1.155985417500     0.879435222819     1.007825032070
           H         -1.015484325228    -1.155985417500     0.000000000000     1.007825032070
           H          0.507742162639    -1.155985417500    -0.879435222819     1.007825032070
           H         -0.507742162639     1.155985417500     0.879435222819     1.007825032070
           H          1.015484325228     1.155985417500     0.000000000000     1.007825032070
           H         -0.507742162639     1.155985417500    -0.879435222819     1.007825032070

  Charge       = 0
  Multiplicity = 1
  Basis Set: AUG-CC-PV(T+D)Z
    Blend: AUG-CC-PV(T+D)Z

    Orbital Energies (a.u.)
    -----------------------

    Doubly Occupied:

       1Ag   -11.210452     1Bu   -11.209841     2Ag    -1.018521
       2Bu    -0.841769     3Bu    -0.597117     1Au    -0.597117
       3Ag    -0.509815     4Ag    -0.486669     1Bg    -0.486669

  @RHF Final Energy:   -79.26037875379797

   => Energetics <=

    Nuclear Repulsion Energy =             42.3447582595182297
    One-Electron Energy =                -189.2943334798029866
    Two-Electron Energy =                  67.6891964664868055
    Total Energy =                        -79.2603787537979656
      * MP2 total energy                      =  -79.635368192724016
      * CCSD total energy                     =  -79.665950897240421
*** Psi4 exiting successfully. Buy a developer a beer!
