                               Psi4 1.2a1.dev939

  ==> Input File <==

--------------------------------------------------------------------------
# Any line starting with the # character is a comment line

memory 32000 mb

molecule molecule {
0 1
C          0.0000000000        0.0000000000        0.7621175845
C         -0.0000000000        0.0000000000       -0.7621175845
H          1.0154843253        0.0000000000        1.1559854175
H         -0.5077421626        0.8794352228        1.1559854175
H         -0.5077421626       -0.8794352228        1.1559854175
H          0.5077421626        0.8794352228       -1.1559854175
H          0.5077421626       -0.8794352228       -1.1559854175
H         -1.0154843253        0.0000000000       -1.1559854175
}

set {
  reference rhf

  basis aug-cc-pv(5+d)z
  scf_type OUT_OF_CORE
  freeze_core true
}

energy('ccsd')
--------------------------------------------------------------------------

    Molecular point group: c2h

    Geometry (in Angstrom), charge = 0, multiplicity = 1:

       Center              X                  Y                   Z               Mass
    ------------   -----------------  -----------------  -----------------  -----------------
           C          0.000000000000    -0.762117584500     0.000000000000    12.000000000000
           C         -0.000000000000     0.762117584500     0.000000000000    12.000000000000
           H          0.507742162639    -1.155985417500     0.879435222819     1.007825032070
           H         -1.015484325228    -1.155985417500     0.000000000000     1.007825032070
           H          0.507742162639    -1.155985417500    -0.879435222819     1.007825032070
           H         -0.507742162639     1.155985417500     0.879435222819     1.007825032070
           H          1.015484325228     1.155985417500     0.000000000000     1.007825032070
           H         -0.507742162639     1.155985417500    -0.879435222819     1.007825032070

  Charge       = 0
  Multiplicity = 1
  Basis Set: AUG-CC-PV(5+D)Z
    Blend: AUG-CC-PV(5+D)Z

    Orbital Energies (a.u.)
    -----------------------

    Doubly Occupied:

       1Ag   -11.209218     1Bu   -11.208604     2Ag    -1.018281
       2Bu    -0.841687     1Au    -0.597301     3Bu    -0.597301
       3Ag    -0.509980     1Bg    -0.486941     4Ag    -0.486941

  @RHF Final Energy:   -79.26654518317781

   => Energetics <=

    Nuclear Repulsion Energy =             42.3447582595182297
    One-Electron Energy =                -189.3100967445579954
    Two-Electron Energy =                  67.6987933018619401
    Total Energy =                        -79.2665451831778114
      * MP2 total energy                      =  -79.668202279877434
      * CCSD total energy                     =  -79.691414930271861
*** Psi4 exiting successfully. Buy a developer a beer!
