                               Psi4 1.4a3.dev88

  ==> Input File <==

--------------------------------------------------------------------------
# Any line starting with the # character is a comment line
memory 250000 mb
molecule molecule{
-1 2
N          0.0000000000        0.0000000000        0.0696479824
H          0.0000000000        0.0000000000       -0.9678536371
}

set {
  reference uhf
  basis aug-cc-pV(5+d)Z
  scf_type OUT_OF_CORE
  freeze_core true
}

energy('ccsd(t)')
--------------------------------------------------------------------------

    Molecular point group: c2v

    Geometry (in Angstrom), charge = -1, multiplicity = 2:

       Center              X                  Y                   Z               Mass
    ------------   -----------------  -----------------  -----------------  -----------------
         N            0.000000000000     0.000000000000     0.069657393642    14.003074004430
         H            0.000000000000     0.000000000000    -0.967844225858     1.007825032230

  Charge       = -1
  Multiplicity = 2
  Basis Set: AUG-CC-PV(5+D)Z
    Blend: AUG-CC-PV(5+D)Z

    Orbital Energies [Eh]
    ---------------------

    Alpha Occupied:

       1A1   -15.300488     2A1    -0.812232     3A1    -0.259214
       1B1    -0.204634     1B2    -0.153432

    Alpha Virtual:

       4A1     0.146297     5A1     0.228317     2B1     0.235885
       2B2     0.245873     6A1     0.291440     7A1     0.336249
       3B1     0.342137     3B2     0.350498     8A1     0.489937
       1A2     0.500862     9A1     0.502582    10A1     0.536222
       4B1     0.564885     4B2     0.578695    11A1     0.635930
       5B1     0.652619     5B2     0.672266    12A1     0.678587
       6B1     0.725478     6B2     0.738495     2A2     0.750614
      13A1     0.751320    14A1     0.891538     7B1     1.034661
       7B2     1.034700    15A1     1.046002     8B1     1.106603
      16A1     1.119672     8B2     1.122294     3A2     1.134132
      17A1     1.140931     9B1     1.151849     9B2     1.169527
      18A1     1.242185     4A2     1.286388    19A1     1.288931
      10B1     1.431801    20A1     1.431987    10B2     1.447823
      11B1     1.502753    11B2     1.502838     5A2     1.555703
      21A1     1.555800    12B1     1.557650    12B2     1.576987
      22A1     1.657089    23A1     1.723205    13B1     1.856654
      13B2     1.883894    24A1     2.085206     6A2     2.333717
      25A1     2.334122    14B1     2.401466    14B2     2.421340
       7A2     2.452888    26A1     2.452889    15B1     2.615239
      15B2     2.616188    16B1     2.622462    27A1     2.625152
      16B2     2.638552    28A1     2.681745    29A1     2.694047
       8A2     2.694224    17B1     2.697746    17B2     2.716736
      18B1     2.720053    30A1     2.723045    18B2     2.723782
       9A2     2.812645    31A1     2.814649    32A1     3.110191
      10A2     3.250384    33A1     3.250641    19B1     3.274596
      19B2     3.290821    11A2     3.337871    34A1     3.337871
      35A1     3.466395    20B1     3.577809    20B2     3.592628
      21B1     3.614085    21B2     3.614415    36A1     3.726983
      12A2     3.751416    37A1     3.754958    38A1     3.966007
      22B1     4.063639    22B2     4.095533    23B1     4.581983
      23B2     4.607162    39A1     4.631681    24B1     4.655439
      24B2     4.655447    25B1     5.065012    25B2     5.065012
      40A1     5.239492    13A2     5.241575    41A1     5.249814
      14A2     5.355497    42A1     5.355497    26B1     5.424802
      26B2     5.445096    27B1     5.712956    27B2     5.738238
      43A1     5.909046    15A2     5.911760    44A1     5.949576
      45A1     5.989161    16A2     6.000757    46A1     6.000768
      28B1     6.005986    28B2     6.006690    29B1     6.042854
      29B2     6.064179    17A2     6.076416    47A1     6.077515
      30B1     6.153480    30B2     6.153528    31B1     6.276768
      31B2     6.291729    48A1     6.349873    32B1     6.467135
      32B2     6.467141    18A2     6.518229    49A1     6.519274
      19A2     6.792888    50A1     6.792917    51A1     7.166910
      52A1     7.654970    33B1     7.777386    33B2     7.797855
      53A1     7.825195    20A2     8.158276    54A1     8.158596
      34B1     8.198219    34B2     8.221724    55A1     9.203637
      35B1     9.275160    35B2     9.296151    56A1    11.369337
      57A1    12.341961    21A2    12.342163    36B1    12.402704
      36B2    12.402736    37B1    12.575928    37B2    12.596632
      38B1    12.737064    38B2    12.737064    58A1    12.787684
      22A2    12.787684    59A1    12.956829    39B1    13.014596
      39B2    13.044612    23A2    13.512121    60A1    13.512121
      61A1    13.548566    40B1    13.649947    40B2    13.649948
      62A1    14.053817    41B1    14.084956    41B2    14.105089
      42B1    14.398785    42B2    14.398789    24A2    14.465955
      63A1    14.465961    64A1    14.642376    25A2    14.642657
      43B1    14.706383    43B2    14.715043    65A1    14.802048
      26A2    14.816831    66A1    14.822990    44B1    14.954767
      44B2    14.954770    27A2    14.989024    67A1    14.989024
      45B1    15.117713    45B2    15.117715    68A1    15.570474
      28A2    15.571215    69A1    15.698640    46B1    16.193133
      46B2    16.208878    70A1    16.394455    47B1    16.589267
      47B2    16.608700    71A1    16.912648    29A2    16.913143
      72A1    17.018879    48B1    17.963594    48B2    17.974608
      73A1    18.161167    30A2    18.161227    74A1    18.562732
      49B1    18.775352    49B2    18.796315    50B1    20.880978
      50B2    20.897166    75A1    22.487432    76A1    23.166497
      77A1    51.855932

    Beta Occupied:

       1A1   -15.256596     2A1    -0.640136     3A1    -0.201931
       1B2     0.020504

    Beta Virtual:

       4A1     0.142941     1B1     0.224939     5A1     0.226855
       2B2     0.260909     6A1     0.288728     2B1     0.330530
       7A1     0.333075     3B2     0.351019     3B1     0.420358
       8A1     0.492587     1A2     0.493561     9A1     0.498666
      10A1     0.532669     4B2     0.573628     4B1     0.578454
      11A1     0.639650    12A1     0.683695     5B2     0.700280
       5B1     0.713920     6B2     0.742082     2A2     0.748927
      13A1     0.749023     6B1     0.763093    14A1     0.909665
       7B2     1.034215     7B1     1.034220    15A1     1.062042
       8B1     1.114834     8B2     1.120690    16A1     1.124785
       3A2     1.142049    17A1     1.142924     9B2     1.173677
       9B1     1.176587    18A1     1.250412     4A2     1.324558
      19A1     1.324774    20A1     1.439614    10B1     1.453597
      10B2     1.455453    11B2     1.501644    11B1     1.501652
       5A2     1.555123    21A1     1.555183    12B2     1.598334
      12B1     1.601884    22A1     1.674449    23A1     1.725875
      13B2     1.913185    13B1     1.914254    24A1     2.102129
       6A2     2.343557    25A1     2.343615    14B1     2.424641
      14B2     2.429473     7A2     2.460811    26A1     2.460811
      27A1     2.631437    15B1     2.632597    15B2     2.641227
      16B1     2.644837    16B2     2.645535    28A1     2.706343
       8A2     2.707700    29A1     2.712765    17B1     2.724062
      17B2     2.726166    18B1     2.730468    30A1     2.734295
      18B2     2.734955     9A2     2.891248    31A1     2.891467
      32A1     3.119563    10A2     3.259098    33A1     3.259159
      19B1     3.291054    19B2     3.298389    11A2     3.338958
      34A1     3.338958    35A1     3.483458    20B1     3.582603
      20B2     3.593518    21B1     3.613145    21B2     3.613357
      36A1     3.731432    12A2     3.758892    37A1     3.760523
      38A1     3.985872    22B1     4.130683    22B2     4.134908
      23B1     4.631172    23B2     4.636436    39A1     4.647996
      24B1     4.661532    24B2     4.661533    25B1     5.078588
      25B2     5.078588    40A1     5.254580    13A2     5.255169
      41A1     5.261681    14A2     5.366358    42A1     5.366358
      26B1     5.442771    26B2     5.453908    27B1     5.734560
      27B2     5.749689    43A1     5.924571    15A2     5.926333
      44A1     5.955496    45A1     6.005208    28B1     6.022212
      28B2     6.022589    16A2     6.030807    46A1     6.030809
      29B1     6.054265    29B2     6.069282    17A2     6.090878
      47A1     6.091261    30B1     6.205785    30B2     6.205791
      31B1     6.290167    31B2     6.298725    48A1     6.370972
      32B1     6.483965    32B2     6.483966    18A2     6.541018
      49A1     6.541336    50A1     6.851424    19A2     6.851435
      51A1     7.180939    52A1     7.678418    33B1     7.795417
      33B2     7.807793    53A1     7.841292    20A2     8.188988
      54A1     8.189114    34B1     8.231021    34B2     8.242390
      55A1     9.212347    35B1     9.301771    35B2     9.312654
      56A1    11.399284    57A1    12.354203    21A2    12.354316
      36B1    12.416598    36B2    12.416611    37B1    12.590912
      37B2    12.605554    38B1    12.766544    38B2    12.766544
      58A1    12.809618    22A2    12.809618    59A1    12.967540
      39B1    13.071329    39B2    13.081191    23A2    13.514908
      60A1    13.514908    61A1    13.562181    40B1    13.650330
      40B2    13.650331    62A1    14.065021    41B1    14.102508
      41B2    14.116157    42B1    14.412543    42B2    14.412545
      24A2    14.467120    63A1    14.467126    64A1    14.659314
      25A2    14.659362    43B1    14.710190    43B2    14.716765
      65A1    14.822732    26A2    14.831939    66A1    14.835466
      44B1    15.001698    44B2    15.001699    27A2    15.031744
      67A1    15.031744    45B1    15.151656    45B2    15.151656
      68A1    15.600809    28A2    15.601192    69A1    15.705329
      46B1    16.205290    46B2    16.216374    70A1    16.401525
      47B1    16.612468    47B2    16.624148    71A1    16.924749
      29A2    16.925031    72A1    17.030356    48B1    17.969209
      48B2    17.977395    73A1    18.209283    30A2    18.209289
      74A1    18.574177    49B1    18.801830    49B2    18.813804
      50B1    20.896228    50B2    20.907249    75A1    22.496546
      76A1    23.170177    77A1    51.873051

    Final Occupation by Irrep:
             A1    A2    B1    B2
    DOCC [     3,    0,    0,    1 ]
    SOCC [     0,    0,    1,    0 ]

  @UHF Final Energy:   -54.93335358456505

   => Energetics <=

    Nuclear Repulsion Energy =              3.5703466915793087
    One-Electron Energy =                 -84.1992593991777483
    Two-Electron Energy =                  25.6955591230333980
    Total Energy =                        -54.9333535845650474

  UHF NO Occupations:
  HONO-2 :    3 A1 1.9953723
  HONO-1 :    1 B2 1.8930058
  HONO-0 :    1 B1 1.0000000
  LUNO+0 :    2 B2 0.1069942
  LUNO+1 :    4 A1 0.0046277
  LUNO+2 :    5 A1 0.0024328
  LUNO+3 :    6 A1 0.0000016

Computation Completed

Properties will be evaluated at   0.000000,   0.000000,   0.000000 [a0]

Properties computed using the SCF density matrix

  Nuclear Dipole Moment: [e a0]
     X:     0.0000      Y:     0.0000      Z:    -0.9075

  Electronic Dipole Moment: [e a0]
     X:     0.0000      Y:     0.0000      Z:     0.3839

  Dipole Moment: [e a0]
     X:     0.0000      Y:     0.0000      Z:    -0.5236     Total:     0.5236

  Dipole Moment: [D]
     X:     0.0000      Y:     0.0000      Z:    -1.3309     Total:     1.3309

*** tstop() called on n412-045.vsc4.prov at Fri Jan 22 01:43:33 2021
Module time:
	user time   =     144.11 seconds =       2.40 minutes
	system time =       6.12 seconds =       0.10 minutes
	total time  =         82 seconds =       1.37 minutes
Total time:
	user time   =     144.11 seconds =       2.40 minutes
	system time =       6.12 seconds =       0.10 minutes
	total time  =         82 seconds =       1.37 minutes

*** tstart() called on n412-045.vsc4.prov
*** at Fri Jan 22 01:43:33 2021

	Wfn Parameters:
	--------------------
	Wavefunction         = CCSD_T
	Number of irreps     = 4
	Number of MOs        = 207
	Number of active MOs = 206
	AO-Basis             = NONE
	Semicanonical        = false
	Reference            = UHF
	Print Level          = 1

	IRREP	# MOs	# FZDC	# DOCC	# SOCC	# VIRT	# FZVR
	-----	-----	------	------	------	------	------
	 A1	   77	    1	    2	    0	    74	    0
	 A2	   30	    0	    0	    0	    30	    0
	 B1	   50	    0	    0	    1	    49	    0
	 B2	   50	    0	    1	    0	    49	    0
	Transforming integrals...
	IWL integrals will be deleted.
	(OO|OO)...
	Presorting SO-basis two-electron integrals.
	Sorting File: SO Ints (nn|nn) nbuckets = 1
	Constructing frozen core operators
	Starting AA/AB first half-transformation.
	Sorting AA/AB half-transformed integrals.
	Starting BB first half-transformation.
	Sorting BB half-transformed integrals.
	First half integral transformation complete.
	Starting AA second half-transformation.
	Starting AB second half-transformation.
	Starting BB second half-transformation.
	Two-electron integral transformation complete.
	(OO|OV)...
	Starting AA second half-transformation.
	Starting AB second half-transformation.
	Starting BB second half-transformation.
	Two-electron integral transformation complete.
	(OO|VV)...
	Starting AA second half-transformation.
	Starting AB second half-transformation.
	Starting BB second half-transformation.
	Two-electron integral transformation complete.
	(OV|OO)...
	Starting AA/AB first half-transformation.
	Sorting AA/AB half-transformed integrals.
	Starting BB first half-transformation.
	Sorting BB half-transformed integrals.
	First half integral transformation complete.
	Starting AA second half-transformation.
	Starting AB second half-transformation.
	Starting BB second half-transformation.
	Two-electron integral transformation complete.
	(OV|OV)...
	Starting AA second half-transformation.
	Starting AB second half-transformation.
	Starting BB second half-transformation.
	Two-electron integral transformation complete.
	(OV|VV)...
	Starting AA second half-transformation.
	Starting AB second half-transformation.
	Starting BB second half-transformation.
	Two-electron integral transformation complete.
	(VV|OO)...
	Starting AA/AB first half-transformation.
	Sorting AA/AB half-transformed integrals.
	Starting BB first half-transformation.
	Sorting BB half-transformed integrals.
	First half integral transformation complete.
	Starting AA second half-transformation.
	Starting AB second half-transformation.
	Starting BB second half-transformation.
	Two-electron integral transformation complete.
	(VV|OV)...
	Starting AA second half-transformation.
	Starting AB second half-transformation.
	Starting BB second half-transformation.
	Two-electron integral transformation complete.
	(VV|VV)...
	Starting AA second half-transformation.
	Starting AB second half-transformation.
	Starting BB second half-transformation.
	Two-electron integral transformation complete.
	Frozen core energy     =    -45.75384277976612

	Size of irrep 0 of <AB|CD> integrals:     30.118 (MW) /    240.945 (MB)
	Size of irrep 1 of <AB|CD> integrals:     21.354 (MW) /    170.829 (MB)
	Size of irrep 2 of <AB|CD> integrals:     25.969 (MW) /    207.754 (MB)
	Size of irrep 3 of <AB|CD> integrals:     25.969 (MW) /    207.754 (MB)
	Total:                                   103.410 (MW) /    827.282 (MB)

	Size of irrep 0 of <ab|cd> integrals:     30.658 (MW) /    245.267 (MB)
	Size of irrep 1 of <ab|cd> integrals:     21.809 (MW) /    174.471 (MB)
	Size of irrep 2 of <ab|cd> integrals:     26.729 (MW) /    213.831 (MB)
	Size of irrep 3 of <ab|cd> integrals:     26.276 (MW) /    210.207 (MB)
	Total:                                   105.472 (MW) /    843.776 (MB)

	Size of irrep 0 of <Ab|Cd> integrals:    126.046 (MW) /   1008.364 (MB)
	Size of irrep 1 of <Ab|Cd> integrals:     86.323 (MW) /    690.581 (MB)
	Size of irrep 2 of <Ab|Cd> integrals:    105.391 (MW) /    843.126 (MB)
	Size of irrep 3 of <Ab|Cd> integrals:    104.489 (MW) /    835.914 (MB)
	Total:                                   422.248 (MW) /   3377.986 (MB)

	Size of irrep 0 of <IA|BC> integrals:      2.750 (MW) /     21.998 (MB)
	Size of irrep 1 of <IA|BC> integrals:      1.460 (MW) /     11.682 (MB)
	Size of irrep 2 of <IA|BC> integrals:      2.059 (MW) /     16.470 (MB)
	Size of irrep 3 of <IA|BC> integrals:      2.059 (MW) /     16.470 (MB)
	Total:                                     8.328 (MW) /     66.621 (MB)

	Size of irrep 0 of <ia|bc> integrals:      2.222 (MW) /     17.773 (MB)
	Size of irrep 1 of <ia|bc> integrals:      1.027 (MW) /      8.219 (MB)
	Size of irrep 2 of <ia|bc> integrals:      1.344 (MW) /     10.754 (MB)
	Size of irrep 3 of <ia|bc> integrals:      1.763 (MW) /     14.107 (MB)
	Total:                                     6.357 (MW) /     50.852 (MB)

	Size of irrep 0 of <Ia|Bc> integrals:      2.773 (MW) /     22.185 (MB)
	Size of irrep 1 of <Ia|Bc> integrals:      1.477 (MW) /     11.818 (MB)
	Size of irrep 2 of <Ia|Bc> integrals:      2.094 (MW) /     16.754 (MB)
	Size of irrep 3 of <Ia|Bc> integrals:      2.065 (MW) /     16.519 (MB)
	Total:                                     8.409 (MW) /     67.276 (MB)

	Size of irrep 0 of <iA|bC> integrals:      2.212 (MW) /     17.694 (MB)
	Size of irrep 1 of <iA|bC> integrals:      1.013 (MW) /      8.102 (MB)
	Size of irrep 2 of <iA|bC> integrals:      1.314 (MW) /     10.512 (MB)
	Size of irrep 3 of <iA|bC> integrals:      1.758 (MW) /     14.065 (MB)
	Total:                                     6.297 (MW) /     50.373 (MB)

	Size of irrep 0 of tIjAb amplitudes:       0.056 (MW) /      0.449 (MB)
	Size of irrep 1 of tIjAb amplitudes:       0.009 (MW) /      0.074 (MB)
	Size of irrep 2 of tIjAb amplitudes:       0.021 (MW) /      0.164 (MB)
	Size of irrep 3 of tIjAb amplitudes:       0.041 (MW) /      0.327 (MB)
	Total:                                     0.127 (MW) /      1.015 (MB)

	Nuclear Rep. energy          =      3.57034669157931
	SCF energy                   =    -54.93335358456505
	One-electron energy          =    -23.24863897132675
	Two-electron (AA) energy     =      3.01665354681067
	Two-electron (BB) energy     =      1.16320673297314
	Two-electron (AB) energy     =      6.31892119516017
	Two-electron energy          =     10.49878147494397
	Reference energy             =    -54.93335358456958

*** tstop() called on n412-045.vsc4.prov at Fri Jan 22 01:46:03 2021
Module time:
	user time   =      45.77 seconds =       0.76 minutes
	system time =      30.63 seconds =       0.51 minutes
	total time  =        150 seconds =       2.50 minutes
Total time:
	user time   =     189.88 seconds =       3.16 minutes
	system time =      36.75 seconds =       0.61 minutes
	total time  =        232 seconds =       3.87 minutes
            **************************
            *                        *
            *        CCENERGY        *
            *                        *
            **************************

    Nuclear Rep. energy (wfn)     =    3.570346691579309
    SCF energy          (wfn)     =  -54.933353584565047
    Reference energy    (file100) =  -54.933353584569581

    Input parameters:
    -----------------
    Wave function   =     CCSD_T
    Reference wfn   =     UHF
    Brueckner       =     No
    Memory (Mbytes) =     250000.0
    Maxiter         =     50
    R_Convergence   =     1.0e-07
    E_Convergence   =     1.0e-06
    Restart         =     Yes
    DIIS            =     Yes
    AO Basis        =     NONE
    ABCD            =     NEW
    Cache Level     =     2
    Cache Type      =     LRU
    Print Level     =     1
    Num. of threads =     48
    # Amps to Print =     10
    Print MP2 Amps? =     No
    Analyze T2 Amps =     No
    Print Pair Ener =     No
    Local CC        =     No
    SCS-MP2         =     False
    SCSN-MP2        =     False
    SCS-CCSD        =     False

MP2 correlation energy -0.2121889049598714

      * MP2 total energy                      =  -55.145542489529454
      * CCSD total energy                     =  -55.160726831759376
      * CCSD(T) total energy                     =  -55.170755957310483
*** Psi4 exiting successfully. Buy a developer a beer!
