                               Psi4 1.4a3.dev88

  ==> Input File <==

--------------------------------------------------------------------------
# Any line starting with the # character is a comment line
memory 250000 mb
molecule molecule{
-1 2
N          0.0000000000        0.0000000000        0.0696479824
H          0.0000000000        0.0000000000       -0.9678536371
}

set {
  reference uhf
  basis aug-cc-pv(q+d)z
  scf_type OUT_OF_CORE
  freeze_core true
}

energy('ccsd(t)')
--------------------------------------------------------------------------

    Molecular point group: c2v

    Geometry (in Angstrom), charge = -1, multiplicity = 2:

       Center              X                  Y                   Z               Mass
    ------------   -----------------  -----------------  -----------------  -----------------
         N            0.000000000000     0.000000000000     0.069657393642    14.003074004430
         H            0.000000000000     0.000000000000    -0.967844225858     1.007825032230

  Charge       = -1
  Multiplicity = 2
  Basis Set: AUG-CC-PV(Q+D)Z
    Blend: AUG-CC-PV(Q+D)Z

    Orbital Energies [Eh]
    ---------------------

    Alpha Occupied:

       1A1   -15.272315     2A1    -0.778946     3A1    -0.233470
       1B1    -0.175402     1B2    -0.110896

    Alpha Virtual:

       4A1     0.158411     5A1     0.265443     2B1     0.272795
       2B2     0.283776     6A1     0.323923     7A1     0.395263
       3B1     0.396965     3B2     0.406276     8A1     0.560075
       1A2     0.567064     9A1     0.569106    10A1     0.602682
       4B1     0.635802     4B2     0.649563     5B1     0.820787
      11A1     0.832868     5B2     0.840549    12A1     0.881793
       2A2     0.916246    13A1     0.917107     6B1     0.938595
       6B2     0.960471    14A1     1.001117    15A1     1.226921
       7B1     1.293347     7B2     1.295285     8B1     1.295875
       8B2     1.316470    16A1     1.387775     3A2     1.389140
       9B1     1.426438    17A1     1.431255     9B2     1.444659
       4A2     1.529181    18A1     1.530040    19A1     1.762218
      10B1     1.789867    10B2     1.810090    20A1     1.821119
      11B1     1.960819    11B2     1.960833    21A1     2.048995
       5A2     2.158811    22A1     2.159036    12B1     2.206146
      12B2     2.222370    23A1     2.393672    13B1     2.648837
      13B2     2.688633    24A1     2.959010     6A2     2.959022
      14B1     2.994185    14B2     3.014718    25A1     3.059138
       7A2     3.172532    26A1     3.172532    15B1     3.398949
      15B2     3.423841    27A1     3.435967    16B1     3.463045
      16B2     3.463501    28A1     3.487536    17B1     3.497270
      17B2     3.497667     8A2     3.516148    29A1     3.523192
      18B1     3.581711    18B2     3.609678    30A1     3.633215
       9A2     3.634233    31A1     3.682150    32A1     4.160315
      19B1     4.310292    19B2     4.336435    10A2     4.394264
      33A1     4.395678    34A1     4.785343    20B1     5.243032
      20B2     5.270266    35A1     5.286765    21B1     6.925461
      21B2     6.925461    36A1     7.470010    11A2     7.470151
      22B1     7.694449    22B2     7.710977    37A1     7.756708
      38A1     8.473291    23B1     8.514135    23B2     8.534201
      39A1     8.582810    12A2     8.582811    40A1     8.668561
      13A2     8.669140    24B1     8.768024    24B2     8.768047
      25B1     8.797598    25B2     8.834525    41A1     8.855017
      26B1     9.239307    26B2     9.260962    42A1     9.333543
      14A2     9.424958    43A1     9.427250    27B1     9.494590
      27B2     9.494651    44A1     9.675462    28B1     9.786620
      28B2     9.809441    15A2     9.829736    45A1     9.830854
      16A2    10.122859    46A1    10.123147    29B1    10.667135
      29B2    10.695941    47A1    10.926881    30B1    12.241881
      30B2    12.266992    48A1    12.419482    49A1    14.599087
      50A1    32.274356

    Beta Occupied:

       1A1   -15.234851     2A1    -0.628792     3A1    -0.183709
       1B2     0.002334

    Beta Virtual:

       4A1     0.156747     1B1     0.256222     5A1     0.265427
       2B2     0.295056     6A1     0.324227     2B1     0.375315
       7A1     0.395178     3B2     0.408969     3B1     0.479968
       8A1     0.566779     1A2     0.567041     9A1     0.572035
      10A1     0.601210     4B2     0.644328     4B1     0.649577
      11A1     0.835145     5B2     0.856503     5B1     0.872461
      12A1     0.893976     2A2     0.917406    13A1     0.917517
       6B2     0.974308     6B1     0.998282    14A1     1.017092
      15A1     1.248254     7B2     1.301738     7B1     1.301748
       8B2     1.323805     8B1     1.332441    16A1     1.411887
       3A2     1.412408    17A1     1.431848     9B1     1.433748
       9B2     1.442083     4A2     1.566003    18A1     1.566279
      19A1     1.777411    10B2     1.819957    10B1     1.822066
      20A1     1.831754    11B2     1.961747    11B1     1.961749
      21A1     2.054825     5A2     2.158832    22A1     2.158976
      12B1     2.224775    12B2     2.227925    23A1     2.399291
      13B2     2.724695    13B1     2.734827    24A1     2.969841
       6A2     2.969872    14B1     3.012226    14B2     3.018144
      25A1     3.076946     7A2     3.187318    26A1     3.187318
      15B1     3.425614    15B2     3.434830    27A1     3.455577
      16B1     3.473792    16B2     3.473827    28A1     3.512481
      17B1     3.536803    17B2     3.536817     8A2     3.539303
      29A1     3.540310    18B1     3.618745    18B2     3.623904
      30A1     3.702005     9A2     3.714105    31A1     3.716443
      32A1     4.179639    19B1     4.334549    19B2     4.345917
      10A2     4.409237    33A1     4.409633    34A1     4.795712
      20B1     5.275696    20B2     5.284891    35A1     5.305729
      21B1     6.927321    21B2     6.927321    36A1     7.479872
      11A2     7.479991    22B1     7.705986    22B2     7.714949
      37A1     7.766272    38A1     8.481823    23B1     8.529647
      23B2     8.540618    39A1     8.619106    12A2     8.619107
      40A1     8.675132    13A2     8.675381    24B1     8.795953
      24B2     8.795958    25B1     8.862214    25B2     8.865177
      41A1     8.865647    26B1     9.263731    26B2     9.272579
      42A1     9.356175    14A2     9.449894    43A1     9.450357
      27B1     9.550360    27B2     9.550363    44A1     9.691878
      28B1     9.802380    28B2     9.816365    15A2     9.871968
      45A1     9.872146    16A2    10.172655    46A1    10.172675
      29B1    10.705784    29B2    10.715931    47A1    10.937709
      30B1    12.267573    30B2    12.279967    48A1    12.432263
      49A1    14.607718    50A1    32.298028

    Final Occupation by Irrep:
             A1    A2    B1    B2
    DOCC [     3,    0,    0,    1 ]
    SOCC [     0,    0,    1,    0 ]

  @UHF Final Energy:   -54.93201204126225

   => Energetics <=

    Nuclear Repulsion Energy =              3.5703466915793087
    One-Electron Energy =                 -84.3886708192949015
    Two-Electron Energy =                  25.8863120864533514
    Total Energy =                        -54.9320120412622472

  UHF NO Occupations:
  HONO-2 :    3 A1 1.9960999
  HONO-1 :    1 B2 1.9602612
  HONO-0 :    1 B1 1.0000000
  LUNO+0 :    2 B2 0.0397388
  LUNO+1 :    4 A1 0.0039001
  LUNO+2 :    5 A1 0.0018666
  LUNO+3 :    6 A1 0.0000013

Computation Completed

Properties will be evaluated at   0.000000,   0.000000,   0.000000 [a0]

Properties computed using the SCF density matrix

  Nuclear Dipole Moment: [e a0]
     X:     0.0000      Y:     0.0000      Z:    -0.9075

  Electronic Dipole Moment: [e a0]
     X:     0.0000      Y:     0.0000      Z:     0.4060

  Dipole Moment: [e a0]
     X:     0.0000      Y:     0.0000      Z:    -0.5015     Total:     0.5015

  Dipole Moment: [D]
     X:     0.0000      Y:     0.0000      Z:    -1.2746     Total:     1.2746

*** tstop() called on n412-037.vsc4.prov at Wed Jan 20 20:48:04 2021
Module time:
	user time   =      54.74 seconds =       0.91 minutes
	system time =       1.93 seconds =       0.03 minutes
	total time  =         12 seconds =       0.20 minutes
Total time:
	user time   =      54.74 seconds =       0.91 minutes
	system time =       1.93 seconds =       0.03 minutes
	total time  =         12 seconds =       0.20 minutes

*** tstart() called on n412-037.vsc4.prov
*** at Wed Jan 20 20:48:04 2021

	Wfn Parameters:
	--------------------
	Wavefunction         = CCSD_T
	Number of irreps     = 4
	Number of MOs        = 126
	Number of active MOs = 125
	AO-Basis             = NONE
	Semicanonical        = false
	Reference            = UHF
	Print Level          = 1

	IRREP	# MOs	# FZDC	# DOCC	# SOCC	# VIRT	# FZVR
	-----	-----	------	------	------	------	------
	 A1	   50	    1	    2	    0	    47	    0
	 A2	   16	    0	    0	    0	    16	    0
	 B1	   30	    0	    0	    1	    29	    0
	 B2	   30	    0	    1	    0	    29	    0
	Transforming integrals...
	IWL integrals will be deleted.
	(OO|OO)...
	Presorting SO-basis two-electron integrals.
	Sorting File: SO Ints (nn|nn) nbuckets = 1
	Constructing frozen core operators
	Starting AA/AB first half-transformation.
	Sorting AA/AB half-transformed integrals.
	Starting BB first half-transformation.
	Sorting BB half-transformed integrals.
	First half integral transformation complete.
	Starting AA second half-transformation.
	Starting AB second half-transformation.
	Starting BB second half-transformation.
	Two-electron integral transformation complete.
	(OO|OV)...
	Starting AA second half-transformation.
	Starting AB second half-transformation.
	Starting BB second half-transformation.
	Two-electron integral transformation complete.
	(OO|VV)...
	Starting AA second half-transformation.
	Starting AB second half-transformation.
	Starting BB second half-transformation.
	Two-electron integral transformation complete.
	(OV|OO)...
	Starting AA/AB first half-transformation.
	Sorting AA/AB half-transformed integrals.
	Starting BB first half-transformation.
	Sorting BB half-transformed integrals.
	First half integral transformation complete.
	Starting AA second half-transformation.
	Starting AB second half-transformation.
	Starting BB second half-transformation.
	Two-electron integral transformation complete.
	(OV|OV)...
	Starting AA second half-transformation.
	Starting AB second half-transformation.
	Starting BB second half-transformation.
	Two-electron integral transformation complete.
	(OV|VV)...
	Starting AA second half-transformation.
	Starting AB second half-transformation.
	Starting BB second half-transformation.
	Two-electron integral transformation complete.
	(VV|OO)...
	Starting AA/AB first half-transformation.
	Sorting AA/AB half-transformed integrals.
	Starting BB first half-transformation.
	Sorting BB half-transformed integrals.
	First half integral transformation complete.
	Starting AA second half-transformation.
	Starting AB second half-transformation.
	Starting BB second half-transformation.
	Two-electron integral transformation complete.
	(VV|OV)...
	Starting AA second half-transformation.
	Starting AB second half-transformation.
	Starting BB second half-transformation.
	Two-electron integral transformation complete.
	(VV|VV)...
	Starting AA second half-transformation.
	Starting AB second half-transformation.
	Starting BB second half-transformation.
	Two-electron integral transformation complete.
	Frozen core energy     =    -45.75375836359382

	Size of irrep 0 of <AB|CD> integrals:      4.052 (MW) /     32.417 (MB)
	Size of irrep 1 of <AB|CD> integrals:      2.538 (MW) /     20.301 (MB)
	Size of irrep 2 of <AB|CD> integrals:      3.338 (MW) /     26.703 (MB)
	Size of irrep 3 of <AB|CD> integrals:      3.338 (MW) /     26.703 (MB)
	Total:                                    13.266 (MW) /    106.125 (MB)

	Size of irrep 0 of <ab|cd> integrals:      4.170 (MW) /     33.358 (MB)
	Size of irrep 1 of <ab|cd> integrals:      2.631 (MW) /     21.047 (MB)
	Size of irrep 2 of <ab|cd> integrals:      3.512 (MW) /     28.095 (MB)
	Size of irrep 3 of <ab|cd> integrals:      3.397 (MW) /     27.173 (MB)
	Total:                                    13.709 (MW) /    109.673 (MB)

	Size of irrep 0 of <Ab|Cd> integrals:     17.439 (MW) /    139.512 (MB)
	Size of irrep 1 of <Ab|Cd> integrals:     10.336 (MW) /     82.690 (MB)
	Size of irrep 2 of <Ab|Cd> integrals:     13.697 (MW) /    109.579 (MB)
	Size of irrep 3 of <Ab|Cd> integrals:     13.469 (MW) /    107.751 (MB)
	Total:                                    54.942 (MW) /    439.532 (MB)

	Size of irrep 0 of <IA|BC> integrals:      0.630 (MW) /      5.043 (MB)
	Size of irrep 1 of <IA|BC> integrals:      0.287 (MW) /      2.294 (MB)
	Size of irrep 2 of <IA|BC> integrals:      0.442 (MW) /      3.537 (MB)
	Size of irrep 3 of <IA|BC> integrals:      0.442 (MW) /      3.537 (MB)
	Total:                                     1.801 (MW) /     14.411 (MB)

	Size of irrep 0 of <ia|bc> integrals:      0.517 (MW) /      4.139 (MB)
	Size of irrep 1 of <ia|bc> integrals:      0.201 (MW) /      1.609 (MB)
	Size of irrep 2 of <ia|bc> integrals:      0.285 (MW) /      2.279 (MB)
	Size of irrep 3 of <ia|bc> integrals:      0.387 (MW) /      3.096 (MB)
	Total:                                     1.390 (MW) /     11.123 (MB)

	Size of irrep 0 of <Ia|Bc> integrals:      0.639 (MW) /      5.111 (MB)
	Size of irrep 1 of <Ia|Bc> integrals:      0.293 (MW) /      2.341 (MB)
	Size of irrep 2 of <Ia|Bc> integrals:      0.455 (MW) /      3.642 (MB)
	Size of irrep 3 of <Ia|Bc> integrals:      0.444 (MW) /      3.553 (MB)
	Total:                                     1.831 (MW) /     14.646 (MB)

	Size of irrep 0 of <iA|bC> integrals:      0.514 (MW) /      4.109 (MB)
	Size of irrep 1 of <iA|bC> integrals:      0.196 (MW) /      1.569 (MB)
	Size of irrep 2 of <iA|bC> integrals:      0.274 (MW) /      2.191 (MB)
	Size of irrep 3 of <iA|bC> integrals:      0.385 (MW) /      3.083 (MB)
	Total:                                     1.369 (MW) /     10.952 (MB)

	Size of irrep 0 of tIjAb amplitudes:       0.021 (MW) /      0.167 (MB)
	Size of irrep 1 of tIjAb amplitudes:       0.003 (MW) /      0.026 (MB)
	Size of irrep 2 of tIjAb amplitudes:       0.007 (MW) /      0.059 (MB)
	Size of irrep 3 of tIjAb amplitudes:       0.015 (MW) /      0.117 (MB)
	Total:                                     0.046 (MW) /      0.369 (MB)

	Nuclear Rep. energy          =      3.57034669157931
	SCF energy                   =    -54.93201204126225
	One-electron energy          =    -23.38831982464858
	Two-electron (AA) energy     =      2.95089428251184
	Two-electron (BB) energy     =      1.23838957999249
	Two-electron (AB) energy     =      6.45043559289634
	Two-electron energy          =     10.63971945540066
	Reference energy             =    -54.93201204126243

*** tstop() called on n412-037.vsc4.prov at Wed Jan 20 20:48:31 2021
Module time:
	user time   =       7.65 seconds =       0.13 minutes
	system time =       3.41 seconds =       0.06 minutes
	total time  =         27 seconds =       0.45 minutes
Total time:
	user time   =      62.39 seconds =       1.04 minutes
	system time =       5.34 seconds =       0.09 minutes
	total time  =         39 seconds =       0.65 minutes
            **************************
            *                        *
            *        CCENERGY        *
            *                        *
            **************************

    Nuclear Rep. energy (wfn)     =    3.570346691579309
    SCF energy          (wfn)     =  -54.932012041262247
    Reference energy    (file100) =  -54.932012041262432

    Input parameters:
    -----------------
    Wave function   =     CCSD_T
    Reference wfn   =     UHF
    Brueckner       =     No
    Memory (Mbytes) =     250000.0
    Maxiter         =     50
    R_Convergence   =     1.0e-07
    E_Convergence   =     1.0e-06
    Restart         =     Yes
    DIIS            =     Yes
    AO Basis        =     NONE
    ABCD            =     NEW
    Cache Level     =     2
    Cache Type      =     LRU
    Print Level     =     1
    Num. of threads =     48
    # Amps to Print =     10
    Print MP2 Amps? =     No
    Analyze T2 Amps =     No
    Print Pair Ener =     No
    Local CC        =     No
    SCS-MP2         =     False
    SCSN-MP2        =     False
    SCS-CCSD        =     False

MP2 correlation energy -0.2135447146966035
                Solving CC Amplitude Equations
                ------------------------------
  Iter             Energy              RMS        T1Diag      D1Diag    New D1Diag    D2Diag
  ----     ---------------------    ---------   ----------  ----------  ----------   --------
     0        -0.213544714696604    0.000e+00    0.000000    0.000000    0.000000    0.000000
     1        -0.215549383117959    6.950e-02    0.021620    0.000000    0.000000    0.000000
     2        -0.221470302404657    3.069e-02    0.027017    0.000000    0.000000    0.000000
     3        -0.224627900832078    2.247e-02    0.039505    0.000000    0.000000    0.000000
     4        -0.224774126885200    1.113e-02    0.047531    0.000000    0.000000    0.000000
     5        -0.224669509809319    5.420e-03    0.051588    0.000000    0.000000    0.000000
     6        -0.224719720847833    2.193e-03    0.052370    0.000000    0.000000    0.000000
     7        -0.224739416635847    1.178e-03    0.052582    0.000000    0.000000    0.000000
     8        -0.224742335599453    5.970e-04    0.052583    0.000000    0.000000    0.000000
     9        -0.224759688674849    3.016e-04    0.052616    0.000000    0.000000    0.000000
    10        -0.224752330250864    1.434e-04    0.052621    0.000000    0.000000    0.000000
    11        -0.224753915023147    5.470e-05    0.052606    0.000000    0.000000    0.000000
    12        -0.224754393840196    2.254e-05    0.052611    0.000000    0.000000    0.000000
    13        -0.224754665447878    9.425e-06    0.052609    0.000000    0.000000    0.000000
    14        -0.224754985459580    3.812e-06    0.052610    0.000000    0.000000    0.000000
    15        -0.224755026087617    1.548e-06    0.052610    0.000000    0.000000    0.000000
    16        -0.224755029783971    8.078e-07    0.052610    0.000000    0.000000    0.000000
    17        -0.224755039516814    4.026e-07    0.052610    0.000000    0.000000    0.000000
    18        -0.224755038493606    1.670e-07    0.052610    0.000000    0.000000    0.000000
    19        -0.224755036555710    6.625e-08    0.052610    0.000000    0.000000    0.000000

    Iterations converged.

    Largest TIA Amplitudes:
              3  92        -0.0766248994
              2  63        -0.0488546647
              3  93        -0.0403234536
              2  64        -0.0291044145
              3  95        -0.0185281054
              2  66        -0.0159929869
              1   1        -0.0145266423
              1   3        -0.0138292115
              0   2         0.0088941915
              3  96        -0.0081083107

    Largest Tia Amplitudes:
              2  93         0.0622921358
              2  97         0.0272771181
              2  94         0.0267101149
              2  96         0.0225646053
              2  95         0.0146877509
              2 104         0.0113348789
              0  10        -0.0110710113
              2 101         0.0091344708
              0   5        -0.0075535610
              0   6         0.0066663693

    Largest TIJAB Amplitudes:
      3   2  92  63        -0.0131894525

      * MP2 total energy                      =  -55.145556755959035
      * CCSD total energy                     =  -55.156767077818145
      * CCSD(T) total energy                     =  -55.166767253872678
*** Psi4 exiting successfully. Buy a developer a beer!
