                               Psi4 1.4a3.dev88

  ==> Input File <==

--------------------------------------------------------------------------
# Any line starting with the # character is a comment line
memory 250000 mb
molecule molecule{
0 2
O          0.0000000000       -0.0289459853        0.5529111539
C          0.0000000000        0.1015352015       -0.6237171836
H          0.0000000000       -0.7504622383       -1.3441074102
}

set {
  reference uhf
  basis aug-cc-pV(d+d)Z
  scf_type OUT_OF_CORE
  freeze_core true
  DOCC [     6,    1 ]
  SOCC [     1,    0 ]
}

energy('ccsd(t)')
--------------------------------------------------------------------------

    Molecular point group: cs

    Geometry (in Angstrom), charge = 0, multiplicity = 2:

       Center              X                  Y                   Z               Mass
    ------------   -----------------  -----------------  -----------------  -----------------
         O            0.028914927029    -0.552754775513     0.000000000000    15.994914619570
         C           -0.101566259771     0.623873561987     0.000000000000    12.000000000000
         H            0.750431180029     1.344263788587     0.000000000000     1.007825032230

  Charge       = 0
  Multiplicity = 2
  Basis Set: AUG-CC-PV(D+D)Z
    Blend: AUG-CC-PV(D+D)Z

    Orbital Energies [Eh]
    ---------------------

    Alpha Occupied:

       1Ap   -20.634004     2Ap   -11.368906     3Ap    -1.464206
       4Ap    -0.864092     5Ap    -0.714760     6Ap    -0.651454
       1App   -0.575715     7Ap    -0.395456

    Alpha Virtual:

       8Ap     0.034512     2App    0.068162     9Ap     0.089219
      10Ap     0.099364     3App    0.145692    11Ap     0.161833
      12Ap     0.219897    13Ap     0.247090     4App    0.258532
      14Ap     0.288714    15Ap     0.331011     5App    0.363899
      16Ap     0.419419    17Ap     0.471621     6App    0.511156
      18Ap     0.515966    19Ap     0.583655     7App    0.623088
      20Ap     0.654448    21Ap     0.716851     8App    0.791183
      22Ap     0.854875    23Ap     0.901370    24Ap     0.978704
       9App    1.137410    25Ap     1.156398    26Ap     1.213272
      10App    1.217299    27Ap     1.400048    11App    1.512297
      28Ap     1.546641    29Ap     1.659060    12App    1.660386
      30Ap     1.792703    13App    1.880786    31Ap     1.960654
      32Ap     2.130554    14App    2.160888    33Ap     2.190690
      34Ap     2.365465    35Ap     2.725707    36Ap     3.099911
      15App    3.610935    37Ap     3.614267    16App    3.710145
      38Ap     3.763532    39Ap     4.034524

    Beta Occupied:

       1Ap   -20.622103     2Ap   -11.349757     3Ap    -1.435331
       4Ap    -0.803123     5Ap    -0.668162     1App   -0.576586
       6Ap    -0.525023

    Beta Virtual:

       7Ap     0.035670     8Ap     0.060218     2App    0.074137
       9Ap     0.089819    10Ap     0.133665     3App    0.166250
      11Ap     0.174832    12Ap     0.221703    13Ap     0.257403
       4App    0.258445    14Ap     0.314877    15Ap     0.345590
       5App    0.379970    16Ap     0.430141    17Ap     0.483029
       6App    0.517960    18Ap     0.527986    19Ap     0.603172
       7App    0.625295    20Ap     0.678932    21Ap     0.748411
       8App    0.805519    22Ap     0.887511    23Ap     0.917665
      24Ap     1.016395     9App    1.141579    25Ap     1.169704
      10App    1.221101    26Ap     1.242261    27Ap     1.408116
      11App    1.543817    28Ap     1.575837    12App    1.669535
      29Ap     1.707591    30Ap     1.821756    13App    1.901240
      31Ap     1.988627    32Ap     2.143995    14App    2.180111
      33Ap     2.218380    34Ap     2.387329    35Ap     2.748671
      36Ap     3.113391    15App    3.633685    37Ap     3.637642
      16App    3.711619    38Ap     3.793555    39Ap     4.047656

    Final Occupation by Irrep:
             Ap   App
    DOCC [     6,    1 ]
    SOCC [     1,    0 ]

  @UHF Final Energy:  -113.26637738402827

   => Energetics <=

    Nuclear Repulsion Energy =             26.3875699617322326
    One-Electron Energy =                -206.6592179299617840
    Two-Electron Energy =                  67.0052705842012841
    Total Energy =                       -113.2663773840282744

  UHF NO Occupations:
  HONO-2 :    1App 1.9980655
  HONO-1 :    6 Ap 1.9959025
  HONO-0 :    7 Ap 1.0000000
  LUNO+0 :    8 Ap 0.0040975
  LUNO+1 :    2App 0.0019345
  LUNO+2 :    9 Ap 0.0016114
  LUNO+3 :   10 Ap 0.0002087

Computation Completed

Properties will be evaluated at   0.000000,   0.000000,   0.000000 [a0]

Properties computed using the SCF density matrix

  Nuclear Dipole Moment: [e a0]
     X:     0.7036      Y:     1.2576      Z:     0.0000

  Electronic Dipole Moment: [e a0]
     X:    -0.4104      Y:    -0.4464      Z:     0.0000

  Dipole Moment: [e a0]
     X:     0.2933      Y:     0.8112      Z:     0.0000     Total:     0.8625

  Dipole Moment: [D]
     X:     0.7455      Y:     2.0617      Z:     0.0000     Total:     2.1924

*** tstop() called on l48 at Fri Jan 29 15:09:32 2021
Module time:
	user time   =       1.10 seconds =       0.02 minutes
	system time =       0.09 seconds =       0.00 minutes
	total time  =          1 seconds =       0.02 minutes
Total time:
	user time   =       1.10 seconds =       0.02 minutes
	system time =       0.09 seconds =       0.00 minutes
	total time  =          1 seconds =       0.02 minutes

*** tstart() called on l48
*** at Fri Jan 29 15:09:32 2021

	Wfn Parameters:
	--------------------
	Wavefunction         = CCSD_T
	Number of irreps     = 2
	Number of MOs        = 55
	Number of active MOs = 53
	AO-Basis             = NONE
	Semicanonical        = false
	Reference            = UHF
	Print Level          = 1

	IRREP	# MOs	# FZDC	# DOCC	# SOCC	# VIRT	# FZVR
	-----	-----	------	------	------	------	------
	 Ap	   39	    2	    4	    1	    32	    0
	 App	   16	    0	    1	    0	    15	    0
	Transforming integrals...
	IWL integrals will be deleted.
	(OO|OO)...
	Presorting SO-basis two-electron integrals.
	Sorting File: SO Ints (nn|nn) nbuckets = 1
	Constructing frozen core operators
	Starting AA/AB first half-transformation.
	Sorting AA/AB half-transformed integrals.
	Starting BB first half-transformation.
	Sorting BB half-transformed integrals.
	First half integral transformation complete.
	Starting AA second half-transformation.
	Starting AB second half-transformation.
	Starting BB second half-transformation.
	Two-electron integral transformation complete.
	(OO|OV)...
	Starting AA second half-transformation.
	Starting AB second half-transformation.
	Starting BB second half-transformation.
	Two-electron integral transformation complete.
	(OO|VV)...
	Starting AA second half-transformation.
	Starting AB second half-transformation.
	Starting BB second half-transformation.
	Two-electron integral transformation complete.
	(OV|OO)...
	Starting AA/AB first half-transformation.
	Sorting AA/AB half-transformed integrals.
	Starting BB first half-transformation.
	Sorting BB half-transformed integrals.
	First half integral transformation complete.
	Starting AA second half-transformation.
	Starting AB second half-transformation.
	Starting BB second half-transformation.
	Two-electron integral transformation complete.
	(OV|OV)...
	Starting AA second half-transformation.
	Starting AB second half-transformation.
	Starting BB second half-transformation.
	Two-electron integral transformation complete.
	(OV|VV)...
	Starting AA second half-transformation.
	Starting AB second half-transformation.
	Starting BB second half-transformation.
	Two-electron integral transformation complete.
	(VV|OO)...
	Starting AA/AB first half-transformation.
	Sorting AA/AB half-transformed integrals.
	Starting BB first half-transformation.
	Sorting BB half-transformed integrals.
	First half integral transformation complete.
	Starting AA second half-transformation.
	Starting AB second half-transformation.
	Starting BB second half-transformation.
	Two-electron integral transformation complete.
	(VV|OV)...
	Starting AA second half-transformation.
	Starting AB second half-transformation.
	Starting BB second half-transformation.
	Two-electron integral transformation complete.
	(VV|VV)...
	Starting AA second half-transformation.
	Starting AB second half-transformation.
	Starting BB second half-transformation.
	Two-electron integral transformation complete.
	Frozen core energy     =   -103.66277149073547

	Size of irrep 0 of <AB|CD> integrals:      0.361 (MW) /      2.890 (MB)
	Size of irrep 1 of <AB|CD> integrals:      0.230 (MW) /      1.843 (MB)
	Total:                                     0.592 (MW) /      4.733 (MB)

	Size of irrep 0 of <ab|cd> integrals:      0.401 (MW) /      3.206 (MB)
	Size of irrep 1 of <ab|cd> integrals:      0.245 (MW) /      1.960 (MB)
	Total:                                     0.646 (MW) /      5.166 (MB)

	Size of irrep 0 of <Ab|Cd> integrals:      1.641 (MW) /     13.128 (MB)
	Size of irrep 1 of <Ab|Cd> integrals:      0.951 (MW) /      7.605 (MB)
	Total:                                     2.592 (MW) /     20.733 (MB)

	Size of irrep 0 of <IA|BC> integrals:      0.219 (MW) /      1.749 (MB)
	Size of irrep 1 of <IA|BC> integrals:      0.103 (MW) /      0.822 (MB)
	Total:                                     0.321 (MW) /      2.570 (MB)

	Size of irrep 0 of <ia|bc> integrals:      0.193 (MW) /      1.545 (MB)
	Size of irrep 1 of <ia|bc> integrals:      0.092 (MW) /      0.737 (MB)
	Total:                                     0.285 (MW) /      2.282 (MB)

	Size of irrep 0 of <Ia|Bc> integrals:      0.231 (MW) /      1.845 (MB)
	Size of irrep 1 of <Ia|Bc> integrals:      0.105 (MW) /      0.842 (MB)
	Total:                                     0.336 (MW) /      2.687 (MB)

	Size of irrep 0 of <iA|bC> integrals:      0.183 (MW) /      1.465 (MB)
	Size of irrep 1 of <iA|bC> integrals:      0.090 (MW) /      0.718 (MB)
	Total:                                     0.273 (MW) /      2.183 (MB)

	Size of irrep 0 of tIjAb amplitudes:       0.027 (MW) /      0.215 (MB)
	Size of irrep 1 of tIjAb amplitudes:       0.009 (MW) /      0.070 (MB)
	Total:                                     0.036 (MW) /      0.285 (MB)

	Nuclear Rep. energy          =     26.38756996173223
	SCF energy                   =   -113.26637738402827
	One-electron energy          =    -63.30844550690826
	Two-electron (AA) energy     =      6.63175684346830
	Two-electron (BB) energy     =      4.65883648251936
	Two-electron (AB) energy     =     16.02667632589546
	Two-electron energy          =     27.31726965188312
	Reference energy             =   -113.26637738402837

*** tstop() called on l48 at Fri Jan 29 15:09:33 2021
Module time:
	user time   =       0.56 seconds =       0.01 minutes
	system time =       0.41 seconds =       0.01 minutes
	total time  =          1 seconds =       0.02 minutes
Total time:
	user time   =       1.66 seconds =       0.03 minutes
	system time =       0.50 seconds =       0.01 minutes
	total time  =          2 seconds =       0.03 minutes
            **************************
            *                        *
            *        CCENERGY        *
            *                        *
            **************************

    Nuclear Rep. energy (wfn)     =   26.387569961732233
    SCF energy          (wfn)     = -113.266377384028274
    Reference energy    (file100) = -113.266377384028374

    Input parameters:
    -----------------
    Wave function   =     CCSD_T
    Reference wfn   =     UHF
    Brueckner       =     No
    Memory (Mbytes) =     250000.0
    Maxiter         =     50
    R_Convergence   =     1.0e-07
    E_Convergence   =     1.0e-06
    Restart         =     Yes
    DIIS            =     Yes
    AO Basis        =     NONE
    ABCD            =     NEW
    Cache Level     =     2
    Cache Type      =     LRU
    Print Level     =     1
    Num. of threads =     1
    # Amps to Print =     10
    Print MP2 Amps? =     No
    Analyze T2 Amps =     No
    Print Pair Ener =     No
    Local CC        =     No
    SCS-MP2         =     False
    SCSN-MP2        =     False
    SCS-CCSD        =     False

MP2 correlation energy -0.3103835433670447
                Solving CC Amplitude Equations
                ------------------------------
  Iter             Energy              RMS        T1Diag      D1Diag    New D1Diag    D2Diag
  ----     ---------------------    ---------   ----------  ----------  ----------   --------
     0        -0.310383543367045    0.000e+00    0.000000    0.000000    0.000000    0.000000
     1        -0.306033275265721    9.660e-02    0.024122    0.000000    0.000000    0.000000
     2        -0.317303635662062    3.141e-02    0.023797    0.000000    0.000000    0.000000
     3        -0.321013563412054    1.931e-02    0.030415    0.000000    0.000000    0.000000
     4        -0.320777136478569    5.749e-03    0.032235    0.000000    0.000000    0.000000
     5        -0.320789810667381    2.864e-03    0.033201    0.000000    0.000000    0.000000
     6        -0.320815337098302    1.208e-03    0.033491    0.000000    0.000000    0.000000
     7        -0.320812927031520    5.525e-04    0.033563    0.000000    0.000000    0.000000
     8        -0.320817438790206    1.807e-04    0.033581    0.000000    0.000000    0.000000
     9        -0.320818535157765    5.812e-05    0.033584    0.000000    0.000000    0.000000
    10        -0.320816801529197    2.529e-05    0.033585    0.000000    0.000000    0.000000
    11        -0.320817319932272    1.084e-05    0.033583    0.000000    0.000000    0.000000
    12        -0.320817118553044    4.585e-06    0.033584    0.000000    0.000000    0.000000
    13        -0.320817162904887    2.047e-06    0.033584    0.000000    0.000000    0.000000
    14        -0.320817233218465    7.103e-07    0.033584    0.000000    0.000000    0.000000
    15        -0.320817219432103    2.975e-07    0.033584    0.000000    0.000000    0.000000
    16        -0.320817216590741    1.381e-07    0.033584    0.000000    0.000000    0.000000
    17        -0.320817217005078    6.550e-08    0.033584    0.000000    0.000000    0.000000

    Iterations converged.

    Largest TIA Amplitudes:
              5  33        -0.0229969358
              4   6         0.0204337666
              4   2        -0.0183273072
              5  42         0.0159284630
              5  32        -0.0153650059
              4   5         0.0145639084
              3   5         0.0112777201
              2   5        -0.0099076934
              3   8        -0.0098319664
              5  38        -0.0091103045

    Largest Tia Amplitudes:
              3   1        -0.0467109065
              4  34        -0.0455139515
              3   3         0.0377456439
              4  33        -0.0284474972
              3   4         0.0209343226
              3   7        -0.0147923591
              4  43         0.0137299206
              4  39        -0.0128590370
              3  15         0.0097759240
              3  23         0.0096889919

    Largest TIJAB Amplitudes:
      5   3  33  15         0.0107099437
      5   2  33  15         0.0104534643
      5   3  33  12         0.0094516509
      5   3  32  12         0.0081864455
      5   4  33  16         0.0073971114
      5   3  32  15         0.0072232415
      5   2  32  15         0.0067062632
      5   4  32  12         0.0066509701
      5   3  42  22        -0.0065394376
      3   2  15   6         0.0063030718

    Largest Tijab Amplitudes:
      4   3  34   1        -0.0206714503
      4   3  33   1        -0.0158304828
      4   3  34   3         0.0153210179
      4   2  34  16         0.0142581130
      4   3  34   7        -0.0124381489
      4   3  35   1        -0.0115746936
      4   3  34  13         0.0115271205
      3   2  16   1        -0.0104778433
      4   3  34   4         0.0101624488
      3   2  16   3         0.0099365842

    Largest TIjAb Amplitudes:
      5   4  33  34        -0.0507796133
      5   4  32  34        -0.0431254062
      5   4  33  33        -0.0339831789
      5   3  33   1        -0.0325560246
      5   4  32  33        -0.0322022931
      5   3  32   1        -0.0301530344
      5   3  33   3         0.0242068501
      5   4  32  35        -0.0239795350
      1   1  33  34        -0.0232278903
      5   4  33  35        -0.0229406553

    SCF energy       (wfn)                    = -113.266377384028274
    Reference energy (file100)                = -113.266377384028374

    Opposite-spin MP2 correlation energy      =   -0.228244837346336
    Same-spin MP2 correlation energy          =   -0.082138706020709
    Singles MP2 correlation energy            =   -0.000000000000000
    MP2 correlation energy                    =   -0.310383543367045
      * MP2 total energy                      = -113.576760927395412

    Opposite-spin CCSD correlation energy     =   -0.249758266186195
    Same-spin CCSD correlation energy         =   -0.071058950818883
    Singles CCSD correlation energy           =   -0.000000000000000
    CCSD correlation energy                   =   -0.320817217005078
      * CCSD total energy                     = -113.587194601033445

            **************************
            *                        *
            *        CCTRIPLES       *
            *                        *
            **************************

    Wave function   =    CCSD_T
    Reference wfn   =      UHF

    Nuclear Rep. energy (wfn)                =   26.387569961732233
    SCF energy          (wfn)                = -113.266377384028274
    Reference energy    (file100)            = -113.266377384028374
    CCSD energy         (file100)            =   -0.320817217005078
    Total CCSD energy   (file100)            = -113.587194601033445

    Number of ijk index combinations:
    Spin Case AAA:                                  20
    Spin Case BBB:                                  10

      * CCSD(T) total energy                     = -113.599680559473072
*** Psi4 exiting successfully. Buy a developer a beer!
