                               Psi4 1.2a1.dev938

  ==> Input File <==

--------------------------------------------------------------------------
# Any line starting with the # character is a comment line
memory 250000 mb
molecule molecule{
0 3
S          0.0000000000        0.0000000000        0.0000000000
}

set {
  reference uhf
  basis aug-cc-pv(q+d)z
  scf_type OUT_OF_CORE
  freeze_core true
}

energy('ccsd')
--------------------------------------------------------------------------

    Molecular point group: d2h
    Geometry (in Angstrom), charge = 0, multiplicity = 3:

       Center              X                  Y                   Z               Mass
    ------------   -----------------  -----------------  -----------------  -----------------
           S          0.000000000000     0.000000000000     0.000000000000    31.972070999000

  Charge       = 0
  Multiplicity = 3
  Basis Set: AUG-CC-PV(Q+D)Z
    Blend: AUG-CC-PV(Q+D)Z

    Orbital Energies (a.u.)
    -----------------------

    Alpha Occupied:

       1Ag   -92.012634     2Ag    -9.013103     1B2u   -6.705810
       1B1u   -6.705810     1B3u   -6.685326     3Ag    -0.989884
       2B2u   -0.487012     2B1u   -0.487012     2B3u   -0.415534

    Alpha Virtual:

       3B2u    0.078668     3B1u    0.078668     4Ag     0.080854
       3B3u    0.085169     5Ag     0.188623     1B3g    0.188623
       1B2g    0.200137     1B1g    0.200137     6Ag     0.204528
       4B2u    0.391417     4B1u    0.391417     4B3u    0.415855
       2B3g    0.476844     7Ag     0.476844     8Ag     0.506944
       2B1g    0.507642     2B2g    0.507642     9Ag     0.520841
       5B1u    0.539799     5B2u    0.539799     5B3u    0.550292
       1Au     0.550292     6B2u    0.557057     6B1u    0.557057
       6B3u    0.559446     3B3g    1.259759    10Ag     1.259759
       3B1g    1.293213     3B2g    1.293213    11Ag     1.305966
      12Ag     1.437170     4B3g    1.437170     4B2g    1.452208
       4B1g    1.452208    13Ag     1.463353     5B3g    1.463353
       5B1g    1.470227     5B2g    1.470227     7B1u    1.471503
       7B2u    1.471503    14Ag     1.472555     2Au     1.497429
       7B3u    1.497429     8B2u    1.498463     8B1u    1.498463
       8B3u    1.515315     9B2u    1.519691     9B1u    1.519691
       9B3u    1.553829    15Ag     2.113377     6B3g    3.021167
      16Ag     3.021167     6B1g    3.053073     6B2g    3.053073
      17Ag     3.065119    10B1u    3.620163    10B2u    3.620163
      10B3u    3.651769     3Au     3.651769    11B2u    3.671316
      11B1u    3.671316    11B3u    3.677948    18Ag     3.777581
       7B3g    3.777581     7B2g    3.803449     7B1g    3.803449
       8B3g    3.822432    19Ag     3.822432     8B1g    3.834042
       8B2g    3.834042    20Ag     3.837952    12B2u    5.582372
      12B1u    5.582372    12B3u    5.627716    21Ag     9.229856
       9B3g    9.229856     9B2g    9.252739     9B1g    9.252739
      22Ag     9.260531    23Ag    17.142654

    Beta Occupied:

       1Ag   -91.994815     2Ag    -8.994085     1B3u   -6.675333
       1B1u   -6.659630     1B2u   -6.659630     3Ag    -0.774031
       2B3u   -0.379576

    Beta Virtual:

       2B1u    0.001138     2B2u    0.001138     3B3u    0.086366
       4Ag     0.088925     3B1u    0.100912     3B2u    0.100912
       1B1g    0.211505     1B2g    0.211505     1B3g    0.211686
       5Ag     0.211686     6Ag     0.211797     4B3u    0.423614
       4B1u    0.449104     4B2u    0.449104     7Ag     0.537952
       5B1u    0.553247     5B2u    0.553247     1Au     0.558921
       5B3u    0.558921     8Ag     0.559307     6B2u    0.562534
       6B1u    0.562534     2B2g    0.563380     2B1g    0.563380
       6B3u    0.563663     9Ag     0.582806     2B3g    0.582806
      10Ag     1.334152     3B2g    1.334746     3B1g    1.334746
       3B3g    1.337157    11Ag     1.337157    12Ag     1.459803
       4B3g    1.459803     4B1g    1.468903     4B2g    1.468903
      13Ag     1.475537     5B3g    1.475537     5B1g    1.479572
       5B2g    1.479572    14Ag     1.480926     7B2u    1.532311
       7B1u    1.532311     7B3u    1.538279     2Au     1.538279
       8B3u    1.539842     8B1u    1.540297     8B2u    1.540297
       9B3u    1.566983     9B1u    1.578173     9B2u    1.578173
      15Ag     2.155130     6B3g    3.056591    16Ag     3.056591
       6B2g    3.072598     6B1g    3.072598    17Ag     3.077983
      10B2u    3.684183    10B1u    3.684183    10B3u    3.695177
       3Au     3.695177    11B1u    3.701704    11B2u    3.701704
      11B3u    3.703865    18Ag     3.830272     7B3g    3.830272
       7B1g    3.842952     7B2g    3.842952    19Ag     3.852059
       8B3g    3.852059     8B2g    3.857541     8B1g    3.857541
      20Ag     3.859371    12B1u    5.629648    12B2u    5.629648
      12B3u    5.638627    21Ag     9.252961     9B3g    9.252961
       9B2g    9.265907     9B1g    9.265907    22Ag     9.270256
      23Ag    17.165292

    Final Occupation by Irrep:
             Ag   B1g   B2g   B3g    Au   B1u   B2u   B3u
    DOCC [     3,    0,    0,    0,    0,    1,    1,    2 ]
    SOCC [     0,    0,    0,    0,    0,    1,    1,    0 ]

  Energy converged.

  @UHF Final Energy:  -397.51274513759103

   => Energetics <=

    Nuclear Repulsion Energy =              0.0000000000000000
    One-Electron Energy =                -549.3862657240206318
    Two-Electron Energy =                 151.8735205864295779
    PCM Polarization Energy =               0.0000000000000000
    Total Energy =                       -397.5127451375910823

    Alert: EFP and PCM quantities not currently incorporated into SCF psivars.
  UHF NO Occupations:
  HONO-2 :    3 Ag 1.9941878
  HONO-1 :    2B2u 1.0000000
  HONO-0 :    2B1u 1.0000000
  LUNO+0 :    4 Ag 0.0058122
  LUNO+1 :    3B3u 0.0009602
  LUNO+2 :    3B2u 0.0000037
  LUNO+3 :    3B1u 0.0000037

Properties will be evaluated at   0.000000,   0.000000,   0.000000 Bohr

Properties computed using the SCF density matrix

  Nuclear Dipole Moment: (a.u.)
     X:     0.0000      Y:     0.0000      Z:     0.0000

  Electronic Dipole Moment: (a.u.)
     X:     0.0000      Y:     0.0000      Z:     0.0000

  Dipole Moment: (a.u.)
     X:     0.0000      Y:     0.0000      Z:     0.0000     Total:     0.0000

  Dipole Moment: (Debye)
     X:     0.0000      Y:     0.0000      Z:     0.0000     Total:     0.0000

*** tstop() called on cqc05 at Thu Aug 20 22:41:08 2020
Module time:
	user time   =       1.90 seconds =       0.03 minutes
	system time =       0.08 seconds =       0.00 minutes
	total time  =          2 seconds =       0.03 minutes
Total time:
	user time   =       1.90 seconds =       0.03 minutes
	system time =       0.08 seconds =       0.00 minutes
	total time  =          2 seconds =       0.03 minutes

*** tstart() called on cqc05
*** at Thu Aug 20 22:41:08 2020

	Wfn Parameters:
	--------------------
	Wavefunction         = CCSD
	Number of irreps     = 8
	Number of MOs        = 89
	Number of active MOs = 84
	AO-Basis             = NONE
	Semicanonical        = false
	Reference            = UHF
	Print Level          = 1

	IRREP	# MOs	# FZDC	# DOCC	# SOCC	# VIRT	# FZVR
	-----	-----	------	------	------	------	------
	 Ag	   23	    2	    1	    0	    20	    0
	 B1g	   9	    0	    0	    0	    9	    0
	 B2g	   9	    0	    0	    0	    9	    0
	 B3g	   9	    0	    0	    0	    9	    0
	 Au	   3	    0	    0	    0	    3	    0
	 B1u	   12	    1	    0	    1	    10	    0
	 B2u	   12	    1	    0	    1	    10	    0
	 B3u	   12	    1	    1	    0	    10	    0
	Transforming integrals...
	IWL integrals will be deleted.
	(OO|OO)...
	Presorting SO-basis two-electron integrals.
	Sorting File: SO Ints (nn|nn) nbuckets = 1
	Transforming the one-electron integrals and constructing Fock matrices
	Starting AA/AB first half-transformation.
	Sorting AA/AB half-transformed integrals.
	Starting BB first half-transformation.
	Sorting BB half-transformed integrals.
	First half integral transformation complete.
	Starting AA second half-transformation.
	Starting AB second half-transformation.
	Starting BB second half-transformation.
	Two-electron integral transformation complete.
	(OO|OV)...
	Starting AA second half-transformation.
	Starting AB second half-transformation.
	Starting BB second half-transformation.
	Two-electron integral transformation complete.
	(OO|VV)...
	Starting AA second half-transformation.
	Starting AB second half-transformation.
	Starting BB second half-transformation.
	Two-electron integral transformation complete.
	(OV|OO)...
	Starting AA/AB first half-transformation.
	Sorting AA/AB half-transformed integrals.
	Starting BB first half-transformation.
	Sorting BB half-transformed integrals.
	First half integral transformation complete.
	Starting AA second half-transformation.
	Starting AB second half-transformation.
	Starting BB second half-transformation.
	Two-electron integral transformation complete.
	(OV|OV)...
	Starting AA second half-transformation.
	Starting AB second half-transformation.
	Starting BB second half-transformation.
	Two-electron integral transformation complete.
	(OV|VV)...
	Starting AA second half-transformation.
	Starting AB second half-transformation.
	Starting BB second half-transformation.
	Two-electron integral transformation complete.
	(VV|OO)...
	Starting AA/AB first half-transformation.
	Sorting AA/AB half-transformed integrals.
	Starting BB first half-transformation.
	Sorting BB half-transformed integrals.
	First half integral transformation complete.
	Starting AA second half-transformation.
	Starting AB second half-transformation.
	Starting BB second half-transformation.
	Two-electron integral transformation complete.
	(VV|OV)...
	Starting AA second half-transformation.
	Starting AB second half-transformation.
	Starting BB second half-transformation.
	Two-electron integral transformation complete.
	(VV|VV)...
	Starting AA second half-transformation.
	Starting AB second half-transformation.
	Starting BB second half-transformation.
	Two-electron integral transformation complete.
	Frozen core energy     =   -387.55287442031954

	Size of irrep 0 of <AB|CD> integrals:      0.190 (MW) /      1.521 (MB)
	Size of irrep 1 of <AB|CD> integrals:      0.153 (MW) /      1.223 (MB)
	Size of irrep 2 of <AB|CD> integrals:      0.153 (MW) /      1.223 (MB)
	Size of irrep 3 of <AB|CD> integrals:      0.153 (MW) /      1.223 (MB)
	Size of irrep 4 of <AB|CD> integrals:      0.109 (MW) /      0.871 (MB)
	Size of irrep 5 of <AB|CD> integrals:      0.166 (MW) /      1.325 (MB)
	Size of irrep 6 of <AB|CD> integrals:      0.166 (MW) /      1.325 (MB)
	Size of irrep 7 of <AB|CD> integrals:      0.166 (MW) /      1.325 (MB)
	Total:                                     1.255 (MW) /     10.037 (MB)

	Size of irrep 0 of <ab|cd> integrals:      0.208 (MW) /      1.663 (MB)
	Size of irrep 1 of <ab|cd> integrals:      0.163 (MW) /      1.306 (MB)
	Size of irrep 2 of <ab|cd> integrals:      0.163 (MW) /      1.306 (MB)
	Size of irrep 3 of <ab|cd> integrals:      0.170 (MW) /      1.358 (MB)
	Size of irrep 4 of <ab|cd> integrals:      0.121 (MW) /      0.969 (MB)
	Size of irrep 5 of <ab|cd> integrals:      0.190 (MW) /      1.521 (MB)
	Size of irrep 6 of <ab|cd> integrals:      0.190 (MW) /      1.521 (MB)
	Size of irrep 7 of <ab|cd> integrals:      0.181 (MW) /      1.445 (MB)
	Total:                                     1.386 (MW) /     11.088 (MB)

	Size of irrep 0 of <Ab|Cd> integrals:      0.945 (MW) /      7.558 (MB)
	Size of irrep 1 of <Ab|Cd> integrals:      0.632 (MW) /      5.056 (MB)
	Size of irrep 2 of <Ab|Cd> integrals:      0.632 (MW) /      5.056 (MB)
	Size of irrep 3 of <Ab|Cd> integrals:      0.643 (MW) /      5.146 (MB)
	Size of irrep 4 of <Ab|Cd> integrals:      0.460 (MW) /      3.677 (MB)
	Size of irrep 5 of <Ab|Cd> integrals:      0.711 (MW) /      5.685 (MB)
	Size of irrep 6 of <Ab|Cd> integrals:      0.711 (MW) /      5.685 (MB)
	Size of irrep 7 of <Ab|Cd> integrals:      0.692 (MW) /      5.538 (MB)
	Total:                                     5.425 (MW) /     43.402 (MB)

	Size of irrep 0 of <IA|BC> integrals:      0.048 (MW) /      0.381 (MB)
	Size of irrep 1 of <IA|BC> integrals:      0.025 (MW) /      0.200 (MB)
	Size of irrep 2 of <IA|BC> integrals:      0.025 (MW) /      0.200 (MB)
	Size of irrep 3 of <IA|BC> integrals:      0.025 (MW) /      0.200 (MB)
	Size of irrep 4 of <IA|BC> integrals:      0.020 (MW) /      0.158 (MB)
	Size of irrep 5 of <IA|BC> integrals:      0.039 (MW) /      0.313 (MB)
	Size of irrep 6 of <IA|BC> integrals:      0.039 (MW) /      0.313 (MB)
	Size of irrep 7 of <IA|BC> integrals:      0.039 (MW) /      0.313 (MB)
	Total:                                     0.260 (MW) /      2.078 (MB)

	Size of irrep 0 of <ia|bc> integrals:      0.030 (MW) /      0.239 (MB)
	Size of irrep 1 of <ia|bc> integrals:      0.016 (MW) /      0.129 (MB)
	Size of irrep 2 of <ia|bc> integrals:      0.016 (MW) /      0.129 (MB)
	Size of irrep 3 of <ia|bc> integrals:      0.010 (MW) /      0.079 (MB)
	Size of irrep 4 of <ia|bc> integrals:      0.008 (MW) /      0.067 (MB)
	Size of irrep 5 of <ia|bc> integrals:      0.017 (MW) /      0.140 (MB)
	Size of irrep 6 of <ia|bc> integrals:      0.017 (MW) /      0.140 (MB)
	Size of irrep 7 of <ia|bc> integrals:      0.025 (MW) /      0.204 (MB)
	Total:                                     0.141 (MW) /      1.126 (MB)

	Size of irrep 0 of <Ia|Bc> integrals:      0.051 (MW) /      0.404 (MB)
	Size of irrep 1 of <Ia|Bc> integrals:      0.026 (MW) /      0.210 (MB)
	Size of irrep 2 of <Ia|Bc> integrals:      0.026 (MW) /      0.210 (MB)
	Size of irrep 3 of <Ia|Bc> integrals:      0.027 (MW) /      0.218 (MB)
	Size of irrep 4 of <Ia|Bc> integrals:      0.020 (MW) /      0.163 (MB)
	Size of irrep 5 of <Ia|Bc> integrals:      0.041 (MW) /      0.330 (MB)
	Size of irrep 6 of <Ia|Bc> integrals:      0.041 (MW) /      0.330 (MB)
	Size of irrep 7 of <Ia|Bc> integrals:      0.040 (MW) /      0.319 (MB)
	Total:                                     0.273 (MW) /      2.185 (MB)

	Size of irrep 0 of <iA|bC> integrals:      0.029 (MW) /      0.233 (MB)
	Size of irrep 1 of <iA|bC> integrals:      0.015 (MW) /      0.121 (MB)
	Size of irrep 2 of <iA|bC> integrals:      0.015 (MW) /      0.121 (MB)
	Size of irrep 3 of <iA|bC> integrals:      0.010 (MW) /      0.077 (MB)
	Size of irrep 4 of <iA|bC> integrals:      0.008 (MW) /      0.065 (MB)
	Size of irrep 5 of <iA|bC> integrals:      0.016 (MW) /      0.128 (MB)
	Size of irrep 6 of <iA|bC> integrals:      0.016 (MW) /      0.128 (MB)
	Size of irrep 7 of <iA|bC> integrals:      0.025 (MW) /      0.200 (MB)
	Total:                                     0.134 (MW) /      1.073 (MB)

	Size of irrep 0 of tIjAb amplitudes:       0.002 (MW) /      0.016 (MB)
	Size of irrep 1 of tIjAb amplitudes:       0.001 (MW) /      0.006 (MB)
	Size of irrep 2 of tIjAb amplitudes:       0.001 (MW) /      0.006 (MB)
	Size of irrep 3 of tIjAb amplitudes:       0.000 (MW) /      0.000 (MB)
	Size of irrep 4 of tIjAb amplitudes:       0.000 (MW) /      0.000 (MB)
	Size of irrep 5 of tIjAb amplitudes:       0.001 (MW) /      0.007 (MB)
	Size of irrep 6 of tIjAb amplitudes:       0.001 (MW) /      0.007 (MB)
	Size of irrep 7 of tIjAb amplitudes:       0.002 (MW) /      0.013 (MB)
	Total:                                     0.007 (MW) /      0.055 (MB)

	Nuclear Rep. energy          =      0.00000000000000
	SCF energy                   =   -397.51274513759103
	One-electron energy          =    -16.38669188088129
	Two-electron (AA) energy     =      2.33106060797464
	Two-electron (BB) energy     =      0.36162488469347
	Two-electron (AB) energy     =      3.73413567094029
	Two-electron energy          =      6.42682116360839
	Reference energy             =   -397.51274513759245

*** tstop() called on cqc05 at Thu Aug 20 22:41:09 2020
Module time:
	user time   =       0.57 seconds =       0.01 minutes
	system time =       0.38 seconds =       0.01 minutes
	total time  =          1 seconds =       0.02 minutes
Total time:
	user time   =       2.47 seconds =       0.04 minutes
	system time =       0.46 seconds =       0.01 minutes
	total time  =          3 seconds =       0.05 minutes

*** tstart() called on cqc05
*** at Thu Aug 20 22:41:09 2020

            **************************
            *                        *
            *        CCENERGY        *
            *                        *
            **************************

    Nuclear Rep. energy (wfn)     =    0.000000000000000
    SCF energy          (wfn)     = -397.512745137591025
    Reference energy    (file100) = -397.512745137592447

    Input parameters:
    -----------------
    Wave function   =     CCSD
    Reference wfn   =     UHF
    Brueckner       =     No
    Memory (Mbytes) =     250000.0
    Maxiter         =     50
    R_Convergence   =     1.0e-07
    E_Convergence   =     1.0e-06
    Restart         =     Yes
    DIIS            =     Yes
    AO Basis        =     NONE
    ABCD            =     NEW
    Cache Level     =     2
    Cache Type      =     LRU
    Print Level     =     1
    Num. of threads =     4
    # Amps to Print =     10
    Print MP2 Amps? =     No
    Analyze T2 Amps =     No
    Print Pair Ener =     No
    Local CC        =     No
    SCS-MP2         =     False
    SCSN-MP2        =     False
    SCS-CCSD        =     False

MP2 correlation energy -0.1285672514475110
                Solving CC Amplitude Equations
                ------------------------------
  Iter             Energy              RMS        T1Diag      D1Diag    New D1Diag    D2Diag
  ----     ---------------------    ---------   ----------  ----------  ----------   --------
     0        -0.128567251447511    0.000e+00    0.000000    0.000000    0.000000    0.000000
     1        -0.144354814419026    4.523e-02    0.008896    0.000000    0.000000    0.000000
     2        -0.149716831976631    1.577e-02    0.013583    0.000000    0.000000    0.000000
     3        -0.150019698751274    3.623e-03    0.014884    0.000000    0.000000    0.000000
     4        -0.150018247219375    7.621e-04    0.015015    0.000000    0.000000    0.000000
     5        -0.150011598303813    2.494e-04    0.015018    0.000000    0.000000    0.000000
     6        -0.150012667876354    9.344e-05    0.015012    0.000000    0.000000    0.000000
     7        -0.150013530531288    3.256e-05    0.015009    0.000000    0.000000    0.000000
     8        -0.150013401733195    1.072e-05    0.015008    0.000000    0.000000    0.000000
     9        -0.150013340489608    2.617e-06    0.015008    0.000000    0.000000    0.000000
    10        -0.150013348159358    6.804e-07    0.015008    0.000000    0.000000    0.000000
    11        -0.150013347088996    1.740e-07    0.015008    0.000000    0.000000    0.000000
    12        -0.150013347634063    4.776e-08    0.015008    0.000000    0.000000    0.000000
    12        -0.150013347634063    4.776e-08    0.015008    0.000000    0.000000    0.000000

    Iterations converged.

    CCSD corr. energy   =   -0.150013347634063
    PPL corr. energy    =    0.043971733586271
    OS PPL corr. energy =    0.037158554959889
    SS PPL corr. energy =    0.006813178626381
    Largest TIA Amplitudes:
              3  71         0.0069936569
              0   5         0.0062921225
              0   4        -0.0057701410
              0   2        -0.0045926162
              3  70        -0.0042414112
              0   7        -0.0031641969
              3  75        -0.0026881637
              3  76        -0.0025901579
              0  11         0.0021262609
              3  73        -0.0021155467

      * MP2 total energy                      = -397.641312389039967
      * CCSD total energy                     = -397.662758485226504
*** Psi4 exiting successfully. Buy a developer a beer!
