                               Psi4 1.2a1.dev938

  ==> Input File <==

--------------------------------------------------------------------------
# Any line starting with the # character is a comment line
memory 250000 mb
molecule molecule{
0 3
S          0.0000000000        0.0000000000        0.0000000000
}

set {
  reference uhf
  basis aug-cc-pv(5+d)z
  scf_type OUT_OF_CORE
  freeze_core true
}

energy('ccsd')
--------------------------------------------------------------------------

    Molecular point group: d2h
    Geometry (in Angstrom), charge = 0, multiplicity = 3:

       Center              X                  Y                   Z               Mass
    ------------   -----------------  -----------------  -----------------  -----------------
           S          0.000000000000     0.000000000000     0.000000000000    31.972070999000

  Charge       = 0
  Multiplicity = 3
  Basis Set: AUG-CC-PV(5+D)Z
    Blend: AUG-CC-PV(5+D)Z

    Orbital Energies (a.u.)
    -----------------------

    Alpha Occupied:

       1Ag   -92.013204     2Ag    -9.012694     1B2u   -6.705923
       1B3u   -6.705923     1B1u   -6.685446     3Ag    -0.989837
       2B2u   -0.486998     2B3u   -0.486998     2B1u   -0.415534

    Alpha Virtual:

       3B2u    0.070628     3B3u    0.070628     4Ag     0.074183
       3B1u    0.076249     5Ag     0.176530     1B1g    0.176530
       1B2g    0.186649     1B3g    0.186649     6Ag     0.190485
       4B2u    0.331386     4B3u    0.331386     4B1u    0.351824
       7Ag     0.428511     8Ag     0.445256     2B1g    0.445256
       5B2u    0.446546     5B3u    0.446546     5B1u    0.454397
       1Au     0.454397     6B2u    0.459468     6B3u    0.459468
       6B1u    0.461272     2B3g    0.474797     2B2g    0.474797
       9Ag     0.486562     3B1g    1.054294    10Ag     1.054294
       3B3g    1.064803     3B2g    1.064803    11Ag     1.072270
       4B1g    1.072270     4B3g    1.076975     4B2g    1.076975
      12Ag     1.078579     5B1g    1.123307    13Ag     1.123307
       7B2u    1.152501     7B3u    1.152501     5B3g    1.155291
       5B2g    1.155291    14Ag     1.167466     7B1u    1.172404
       2Au     1.172404     8B2u    1.174938     8B3u    1.174938
       8B1u    1.185883     9B2u    1.193459     9B3u    1.193459
       9B1u    1.228324    15Ag     1.614182    10B2u    2.534129
      10B3u    2.534129     3Au     2.563408    10B1u    2.563408
      11B2u    2.581429    11B3u    2.581429    11B1u    2.587534
      16Ag     2.650196     6B1g    2.650196    12B3u    2.664554
      12B2u    2.664554     6B3g    2.671811     6B2g    2.671811
      12B1u    2.679841     4Au     2.679841     7B1g    2.685464
      17Ag     2.685464    13B3u    2.692048    13B2u    2.692048
       7B2g    2.694267     7B3g    2.694267    18Ag     2.697282
       5Au     2.700975    13B1u    2.700975    14B2u    2.706435
      14B3u    2.706435    14B1u    2.708275    19Ag     2.739851
       8B1g    2.739851     8B2g    2.773514     8B3g    2.773514
      20Ag     2.785892    15B2u    3.850528    15B3u    3.850528
      15B1u    3.895941    16B2u    5.314640    16B3u    5.314640
      16B1u    5.343438     6Au     5.343438    17B3u    5.361199
      17B2u    5.361199    17B1u    5.367213    21Ag     5.645686
      22Ag     5.882777     9B1g    5.882777     9B2g    5.912571
       9B3g    5.912571    23Ag     5.925579    24Ag     6.091269
      10B1g    6.091269    10B2g    6.117306    10B3g    6.117306
      25Ag     6.136915    11B1g    6.136915    11B2g    6.149232
      11B3g    6.149232    26Ag     6.153467    18B2u    6.201094
      18B3u    6.201094     7Au     6.223082    18B1u    6.223082
      19B3u    6.240505    19B2u    6.240505    19B1u    6.253130
       8Au     6.253130    20B3u    6.260778    20B2u    6.260778
      20B1u    6.263341    27Ag    16.219301    12B1g   16.219301
      12B2g   16.239028    12B3g   16.239028    28Ag    16.245765
      21B2u   24.304136    21B3u   24.304136    21B1u   24.326705
      29Ag    56.296500

    Beta Occupied:

       1Ag   -91.994035     2Ag    -8.994205     1B1u   -6.675387
       1B3u   -6.659021     1B2u   -6.659021     3Ag    -0.773927
       2B1u   -0.379563

    Beta Virtual:

       2B3u    0.001037     2B2u    0.001037     3B1u    0.077217
       4Ag     0.081223     3B3u    0.090008     3B2u    0.090008
       1B1g    0.195384     5Ag     0.195384     1B3g    0.195868
       1B2g    0.195868     6Ag     0.196340     4B1u    0.358000
       4B3u    0.381337     4B2u    0.381337     7Ag     0.453975
       5B2u    0.454319     5B3u    0.454319     1Au     0.459312
       5B1u    0.459312     6B2u    0.462565     6B3u    0.462565
       6B1u    0.463562     8Ag     0.523074     2B2g    0.527625
       2B3g    0.527625     2B1g    0.545862     9Ag     0.545862
      10Ag     1.065813     3B1g    1.065813     3B2g    1.073201
       3B3g    1.073201     4B1g    1.078372    11Ag     1.078372
       4B3g    1.081382     4B2g    1.081382    12Ag     1.082367
       7B2u    1.194381     7B3u    1.194381    13Ag     1.196184
       5B2g    1.197270     5B3g    1.197270     2Au     1.200385
       7B1u    1.200385     5B1g    1.201667    14Ag     1.201667
       8B3u    1.202761     8B2u    1.202761     8B1u    1.202864
       9B1u    1.240208     9B3u    1.253378     9B2u    1.253378
      15Ag     1.653666    10B2u    2.598107    10B3u    2.598107
      10B1u    2.607013     3Au     2.607013    11B3u    2.612181
      11B2u    2.612181    11B1u    2.613874    12B3u    2.686165
      12B2u    2.686165    16Ag     2.690469     6B1g    2.690469
      12B1u    2.696886     4Au     2.696886     6B3g    2.701889
       6B2g    2.701889    13B3u    2.705304    13B2u    2.705304
      17Ag     2.709376     7B1g    2.709376     5Au     2.711358
      13B1u    2.711358     7B2g    2.713778     7B3g    2.713778
      14B2u    2.715007    14B3u    2.715007    18Ag     2.715236
      14B1u    2.716226     8B1g    2.777346    19Ag     2.777346
       8B2g    2.793077     8B3g    2.793077    20Ag     2.798332
      15B3u    3.905798    15B2u    3.905798    15B1u    3.907888
      16B2u    5.356775    16B3u    5.356775     6Au     5.372048
      16B1u    5.372048    17B3u    5.381320    17B2u    5.381320
      17B1u    5.384426    21Ag     5.676648     9B1g    5.910237
      22Ag     5.910237     9B2g    5.928820     9B3g    5.928820
      23Ag     5.936142    24Ag     6.137114    10B1g    6.137114
      10B2g    6.151735    10B3g    6.151735    25Ag     6.162465
      11B1g    6.162465    11B2g    6.169038    11B3g    6.169038
      26Ag     6.171256    18B2u    6.238593    18B3u    6.238593
       7Au     6.252918    18B1u    6.252918    19B3u    6.264191
      19B2u    6.264191    19B1u    6.272313     8Au     6.272313
      20B3u    6.277215    20B2u    6.277215    20B1u    6.278853
      27Ag    16.244375    12B1g   16.244375    12B2g   16.253610
      12B3g   16.253610    28Ag    16.256767    21B1u   24.334601
      21B3u   24.339599    21B2u   24.339599    29Ag    56.310368

    Final Occupation by Irrep:
             Ag   B1g   B2g   B3g    Au   B1u   B2u   B3u
    DOCC [     3,    0,    0,    0,    0,    2,    1,    1 ]
    SOCC [     0,    0,    0,    0,    0,    0,    1,    1 ]

  Energy converged.

  @UHF Final Energy:  -397.51321749091028

   => Energetics <=

    Nuclear Repulsion Energy =              0.0000000000000000
    One-Electron Energy =                -549.3887207766958909
    Two-Electron Energy =                 151.8755032857856122
    PCM Polarization Energy =               0.0000000000000000
    Total Energy =                       -397.5132174909102787

    Alert: EFP and PCM quantities not currently incorporated into SCF psivars.
  UHF NO Occupations:
  HONO-2 :    3 Ag 1.9941699
  HONO-1 :    2B2u 1.0000000
  HONO-0 :    2B3u 1.0000000
  LUNO+0 :    4 Ag 0.0058301
  LUNO+1 :    3B1u 0.0009631
  LUNO+2 :    3B2u 0.0000047
  LUNO+3 :    3B3u 0.0000047

Properties will be evaluated at   0.000000,   0.000000,   0.000000 Bohr

Properties computed using the SCF density matrix

  Nuclear Dipole Moment: (a.u.)
     X:     0.0000      Y:     0.0000      Z:     0.0000

  Electronic Dipole Moment: (a.u.)
     X:     0.0000      Y:     0.0000      Z:     0.0000

  Dipole Moment: (a.u.)
     X:     0.0000      Y:     0.0000      Z:     0.0000     Total:     0.0000

  Dipole Moment: (Debye)
     X:     0.0000      Y:     0.0000      Z:     0.0000     Total:     0.0000

*** tstop() called on cqc05 at Fri Aug 21 06:47:28 2020
Module time:
	user time   =       8.58 seconds =       0.14 minutes
	system time =       0.24 seconds =       0.00 minutes
	total time  =          8 seconds =       0.13 minutes
Total time:
	user time   =       8.58 seconds =       0.14 minutes
	system time =       0.24 seconds =       0.00 minutes
	total time  =          8 seconds =       0.13 minutes

*** tstart() called on cqc05
*** at Fri Aug 21 06:47:28 2020

	Wfn Parameters:
	--------------------
	Wavefunction         = CCSD
	Number of irreps     = 8
	Number of MOs        = 136
	Number of active MOs = 131
	AO-Basis             = NONE
	Semicanonical        = false
	Reference            = UHF
	Print Level          = 1

	IRREP	# MOs	# FZDC	# DOCC	# SOCC	# VIRT	# FZVR
	-----	-----	------	------	------	------	------
	 Ag	   29	    2	    1	    0	    26	    0
	 B1g	   12	    0	    0	    0	    12	    0
	 B2g	   12	    0	    0	    0	    12	    0
	 B3g	   12	    0	    0	    0	    12	    0
	 Au	   8	    0	    0	    0	    8	    0
	 B1u	   21	    1	    1	    0	    19	    0
	 B2u	   21	    1	    0	    1	    19	    0
	 B3u	   21	    1	    0	    1	    19	    0
	Transforming integrals...
	IWL integrals will be deleted.
	(OO|OO)...
	Presorting SO-basis two-electron integrals.
	Sorting File: SO Ints (nn|nn) nbuckets = 1
	Transforming the one-electron integrals and constructing Fock matrices
	Starting AA/AB first half-transformation.
	Sorting AA/AB half-transformed integrals.
	Starting BB first half-transformation.
	Sorting BB half-transformed integrals.
	First half integral transformation complete.
	Starting AA second half-transformation.
	Starting AB second half-transformation.
	Starting BB second half-transformation.
	Two-electron integral transformation complete.
	(OO|OV)...
	Starting AA second half-transformation.
	Starting AB second half-transformation.
	Starting BB second half-transformation.
	Two-electron integral transformation complete.
	(OO|VV)...
	Starting AA second half-transformation.
	Starting AB second half-transformation.
	Starting BB second half-transformation.
	Two-electron integral transformation complete.
	(OV|OO)...
	Starting AA/AB first half-transformation.
	Sorting AA/AB half-transformed integrals.
	Starting BB first half-transformation.
	Sorting BB half-transformed integrals.
	First half integral transformation complete.
	Starting AA second half-transformation.
	Starting AB second half-transformation.
	Starting BB second half-transformation.
	Two-electron integral transformation complete.
	(OV|OV)...
	Starting AA second half-transformation.
	Starting AB second half-transformation.
	Starting BB second half-transformation.
	Two-electron integral transformation complete.
	(OV|VV)...
	Starting AA second half-transformation.
	Starting AB second half-transformation.
	Starting BB second half-transformation.
	Two-electron integral transformation complete.
	(VV|OO)...
	Starting AA/AB first half-transformation.
	Sorting AA/AB half-transformed integrals.
	Starting BB first half-transformation.
	Sorting BB half-transformed integrals.
	First half integral transformation complete.
	Starting AA second half-transformation.
	Starting AB second half-transformation.
	Starting BB second half-transformation.
	Two-electron integral transformation complete.
	(VV|OV)...
	Starting AA second half-transformation.
	Starting AB second half-transformation.
	Starting BB second half-transformation.
	Two-electron integral transformation complete.
	(VV|VV)...
	Starting AA second half-transformation.
	Starting AB second half-transformation.
	Starting BB second half-transformation.
	Two-electron integral transformation complete.
	Frozen core energy     =   -387.55313465545481

	Size of irrep 0 of <AB|CD> integrals:      1.132 (MW) /      9.057 (MB)
	Size of irrep 1 of <AB|CD> integrals:      0.939 (MW) /      7.512 (MB)
	Size of irrep 2 of <AB|CD> integrals:      0.939 (MW) /      7.512 (MB)
	Size of irrep 3 of <AB|CD> integrals:      0.939 (MW) /      7.512 (MB)
	Size of irrep 4 of <AB|CD> integrals:      0.796 (MW) /      6.365 (MB)
	Size of irrep 5 of <AB|CD> integrals:      1.094 (MW) /      8.753 (MB)
	Size of irrep 6 of <AB|CD> integrals:      1.094 (MW) /      8.753 (MB)
	Size of irrep 7 of <AB|CD> integrals:      1.094 (MW) /      8.753 (MB)
	Total:                                     8.027 (MW) /     64.216 (MB)

	Size of irrep 0 of <ab|cd> integrals:      1.214 (MW) /      9.715 (MB)
	Size of irrep 1 of <ab|cd> integrals:      1.016 (MW) /      8.129 (MB)
	Size of irrep 2 of <ab|cd> integrals:      0.992 (MW) /      7.936 (MB)
	Size of irrep 3 of <ab|cd> integrals:      0.992 (MW) /      7.936 (MB)
	Size of irrep 4 of <ab|cd> integrals:      0.839 (MW) /      6.712 (MB)
	Size of irrep 5 of <ab|cd> integrals:      1.145 (MW) /      9.159 (MB)
	Size of irrep 6 of <ab|cd> integrals:      1.175 (MW) /      9.400 (MB)
	Size of irrep 7 of <ab|cd> integrals:      1.175 (MW) /      9.400 (MB)
	Total:                                     8.549 (MW) /     68.389 (MB)

	Size of irrep 0 of <Ab|Cd> integrals:      5.258 (MW) /     42.063 (MB)
	Size of irrep 1 of <Ab|Cd> integrals:      3.905 (MW) /     31.237 (MB)
	Size of irrep 2 of <Ab|Cd> integrals:      3.861 (MW) /     30.890 (MB)
	Size of irrep 3 of <Ab|Cd> integrals:      3.861 (MW) /     30.890 (MB)
	Size of irrep 4 of <Ab|Cd> integrals:      3.269 (MW) /     26.151 (MB)
	Size of irrep 5 of <Ab|Cd> integrals:      4.477 (MW) /     35.820 (MB)
	Size of irrep 6 of <Ab|Cd> integrals:      4.537 (MW) /     36.295 (MB)
	Size of irrep 7 of <Ab|Cd> integrals:      4.537 (MW) /     36.295 (MB)
	Total:                                    33.705 (MW) /    269.640 (MB)

	Size of irrep 0 of <IA|BC> integrals:      0.187 (MW) /      1.497 (MB)
	Size of irrep 1 of <IA|BC> integrals:      0.112 (MW) /      0.899 (MB)
	Size of irrep 2 of <IA|BC> integrals:      0.112 (MW) /      0.899 (MB)
	Size of irrep 3 of <IA|BC> integrals:      0.112 (MW) /      0.899 (MB)
	Size of irrep 4 of <IA|BC> integrals:      0.078 (MW) /      0.628 (MB)
	Size of irrep 5 of <IA|BC> integrals:      0.144 (MW) /      1.155 (MB)
	Size of irrep 6 of <IA|BC> integrals:      0.144 (MW) /      1.155 (MB)
	Size of irrep 7 of <IA|BC> integrals:      0.144 (MW) /      1.155 (MB)
	Total:                                     1.036 (MW) /      8.287 (MB)

	Size of irrep 0 of <ia|bc> integrals:      0.105 (MW) /      0.840 (MB)
	Size of irrep 1 of <ia|bc> integrals:      0.040 (MW) /      0.323 (MB)
	Size of irrep 2 of <ia|bc> integrals:      0.064 (MW) /      0.510 (MB)
	Size of irrep 3 of <ia|bc> integrals:      0.064 (MW) /      0.510 (MB)
	Size of irrep 4 of <ia|bc> integrals:      0.037 (MW) /      0.293 (MB)
	Size of irrep 5 of <ia|bc> integrals:      0.096 (MW) /      0.770 (MB)
	Size of irrep 6 of <ia|bc> integrals:      0.069 (MW) /      0.555 (MB)
	Size of irrep 7 of <ia|bc> integrals:      0.069 (MW) /      0.555 (MB)
	Total:                                     0.544 (MW) /      4.356 (MB)

	Size of irrep 0 of <Ia|Bc> integrals:      0.195 (MW) /      1.559 (MB)
	Size of irrep 1 of <Ia|Bc> integrals:      0.119 (MW) /      0.948 (MB)
	Size of irrep 2 of <Ia|Bc> integrals:      0.116 (MW) /      0.927 (MB)
	Size of irrep 3 of <Ia|Bc> integrals:      0.116 (MW) /      0.927 (MB)
	Size of irrep 4 of <Ia|Bc> integrals:      0.080 (MW) /      0.636 (MB)
	Size of irrep 5 of <Ia|Bc> integrals:      0.146 (MW) /      1.168 (MB)
	Size of irrep 6 of <Ia|Bc> integrals:      0.149 (MW) /      1.193 (MB)
	Size of irrep 7 of <Ia|Bc> integrals:      0.149 (MW) /      1.193 (MB)
	Total:                                     1.069 (MW) /      8.553 (MB)

	Size of irrep 0 of <iA|bC> integrals:      0.103 (MW) /      0.825 (MB)
	Size of irrep 1 of <iA|bC> integrals:      0.040 (MW) /      0.316 (MB)
	Size of irrep 2 of <iA|bC> integrals:      0.061 (MW) /      0.487 (MB)
	Size of irrep 3 of <iA|bC> integrals:      0.061 (MW) /      0.487 (MB)
	Size of irrep 4 of <iA|bC> integrals:      0.036 (MW) /      0.289 (MB)
	Size of irrep 5 of <iA|bC> integrals:      0.095 (MW) /      0.762 (MB)
	Size of irrep 6 of <iA|bC> integrals:      0.066 (MW) /      0.528 (MB)
	Size of irrep 7 of <iA|bC> integrals:      0.066 (MW) /      0.528 (MB)
	Total:                                     0.528 (MW) /      4.224 (MB)

	Size of irrep 0 of tIjAb amplitudes:       0.005 (MW) /      0.037 (MB)
	Size of irrep 1 of tIjAb amplitudes:       0.000 (MW) /      0.000 (MB)
	Size of irrep 2 of tIjAb amplitudes:       0.002 (MW) /      0.016 (MB)
	Size of irrep 3 of tIjAb amplitudes:       0.002 (MW) /      0.016 (MB)
	Size of irrep 4 of tIjAb amplitudes:       0.000 (MW) /      0.000 (MB)
	Size of irrep 5 of tIjAb amplitudes:       0.004 (MW) /      0.034 (MB)
	Size of irrep 6 of tIjAb amplitudes:       0.002 (MW) /      0.017 (MB)
	Size of irrep 7 of tIjAb amplitudes:       0.002 (MW) /      0.017 (MB)
	Total:                                     0.017 (MW) /      0.136 (MB)

	Nuclear Rep. energy          =      0.00000000000000
	SCF energy                   =   -397.51321749091028
	One-electron energy          =    -16.38730930503926
	Two-electron (AA) energy     =      2.33122126451806
	Two-electron (BB) energy     =      0.36164212934009
	Two-electron (AB) energy     =      3.73436307572609
	Two-electron energy          =      6.42722646958424
	Reference energy             =   -397.51321749090982

*** tstop() called on cqc05 at Fri Aug 21 06:47:33 2020
Module time:
	user time   =       2.97 seconds =       0.05 minutes
	system time =       1.53 seconds =       0.03 minutes
	total time  =          5 seconds =       0.08 minutes
Total time:
	user time   =      11.55 seconds =       0.19 minutes
	system time =       1.77 seconds =       0.03 minutes
	total time  =         13 seconds =       0.22 minutes

*** tstart() called on cqc05
*** at Fri Aug 21 06:47:33 2020

            **************************
            *                        *
            *        CCENERGY        *
            *                        *
            **************************

    Nuclear Rep. energy (wfn)     =    0.000000000000000
    SCF energy          (wfn)     = -397.513217490910279
    Reference energy    (file100) = -397.513217490909824

    Input parameters:
    -----------------
    Wave function   =     CCSD
    Reference wfn   =     UHF
    Brueckner       =     No
    Memory (Mbytes) =     250000.0
    Maxiter         =     50
    R_Convergence   =     1.0e-07
    E_Convergence   =     1.0e-06
    Restart         =     Yes
    DIIS            =     Yes
    AO Basis        =     NONE
    ABCD            =     NEW
    Cache Level     =     2
    Cache Type      =     LRU
    Print Level     =     1
    Num. of threads =     4
    # Amps to Print =     10
    Print MP2 Amps? =     No
    Analyze T2 Amps =     No
    Print Pair Ener =     No
    Local CC        =     No
    SCS-MP2         =     False
    SCSN-MP2        =     False
    SCS-CCSD        =     False

MP2 correlation energy -0.1330856530424959
                Solving CC Amplitude Equations
                ------------------------------
  Iter             Energy              RMS        T1Diag      D1Diag    New D1Diag    D2Diag
  ----     ---------------------    ---------   ----------  ----------  ----------   --------
     0        -0.133085653042497    0.000e+00    0.000000    0.000000    0.000000    0.000000
     1        -0.147163043603029    4.460e-02    0.009254    0.000000    0.000000    0.000000

      * MP2 total energy                      = -397.646303143952309
      * CCSD total energy                     = -397.666000328267614
*** Psi4 exiting successfully. Buy a developer a beer!
