                               Psi4 1.4a3.dev88

  ==> Input File <==

--------------------------------------------------------------------------
# Any line starting with the # character is a comment line
memory 250000 mb
molecule molecule{
0 2
O          0.0000000000        0.0000000000       -0.5412437487
N          0.0000000000        0.0000000000        0.6182452136
}

set {
  reference uhf
  basis aug-cc-pV(5+d)Z
  scf_type OUT_OF_CORE
  freeze_core true
}

energy('ccsd(t)')
--------------------------------------------------------------------------

    Molecular point group: c2v

    Geometry (in Angstrom), charge = 0, multiplicity = 2:

       Center              X                  Y                   Z               Mass
    ------------   -----------------  -----------------  -----------------  -----------------
         O            0.000000000000     0.000000000000    -0.541249946785    15.994914619570
         N            0.000000000000     0.000000000000     0.618239015515    14.003074004430

  Charge       = 0
  Multiplicity = 2
  Basis Set: AUG-CC-PV(5+D)Z
    Blend: AUG-CC-PV(5+D)Z

    Orbital Energies [Eh]
    ---------------------

    Alpha Occupied:

       1A1   -20.697617     2A1   -15.736051     3A1    -1.603846
       4A1    -0.972380     1B1    -0.786493     5A1    -0.698298
       1B2    -0.639220     2B1    -0.431836

    Alpha Virtual:

       6A1     0.061743     2B2     0.067188     7A1     0.083712
       3B1     0.084985     3B2     0.090472     8A1     0.132230
       4B1     0.133957     4B2     0.143933     9A1     0.223987
       1A2     0.284620    10A1     0.284620    11A1     0.321563
       5B1     0.332086     5B2     0.333324     6B1     0.369330
       6B2     0.378522    12A1     0.395332    13A1     0.452841
       2A2     0.460992    14A1     0.461611     7B1     0.499861
       7B2     0.516263    15A1     0.571876    16A1     0.684396
       8B1     0.687651     8B2     0.695526    17A1     0.768066
       9B1     0.769757     9B2     0.769757     3A2     0.864144
      18A1     0.864426    10B2     0.879927    10B1     0.880498
      19A1     0.899315     4A2     0.922198    20A1     0.922917
      11B1     1.078504    11B2     1.078520    12B1     1.099666
      12B2     1.106426    21A1     1.110007     5A2     1.162878
      22A1     1.162882    23A1     1.229516    13B1     1.271712
      13B2     1.278780    24A1     1.290412    14B1     1.430301
      14B2     1.450769    25A1     1.510393     6A2     1.510452
      26A1     1.571439    15B1     1.571511    15B2     1.585222
      27A1     1.780632    16B1     2.086748    16B2     2.097289
      28A1     2.115177     7A2     2.115177    29A1     2.240388
      17B2     2.241452    17B1     2.241453     8A2     2.315935
      30A1     2.317047    18B1     2.347723    18B2     2.347755
      31A1     2.367894     9A2     2.367907    19B1     2.368516
      19B2     2.368857    32A1     2.505789    33A1     2.515261
      20B2     2.631440    20B1     2.634522    10A2     2.645973
      34A1     2.646259    35A1     2.664029    11A2     2.728108
      36A1     2.728108    21B1     2.881688    21B2     2.881688
      22B2     3.031685    22B1     3.038212    37A1     3.059726
      12A2     3.060088    38A1     3.095778    23B2     3.219272
      23B1     3.220652    24B2     3.308477    24B1     3.308481
      39A1     3.339244    13A2     3.359686    40A1     3.359894
      25B1     3.653131    25B2     3.662413    41A1     3.809104
      26B1     3.992326    26B2     3.992954    42A1     4.100575
      14A2     4.226300    43A1     4.226664    27B1     4.686213
      27B2     4.686213    44A1     4.819464    15A2     4.885597
      45A1     4.885597    28B2     4.974113    28B1     4.976164
      46A1     5.083328    29B1     5.290631    29B2     5.298975
      30B2     5.469774    30B1     5.469779    47A1     5.519324
      16A2     5.519607    31B2     5.591221    48A1     5.594584
      17A2     5.594584    31B1     5.603684    49A1     5.632039
      32B2     5.637097    32B1     5.637206    50A1     5.795960
      18A2     5.797290    51A1     5.823721    33B2     5.862921
      33B1     5.862958    19A2     5.898237    52A1     5.898354
      34B2     5.924581    34B1     5.939238    35B2     6.211093
      35B1     6.211093    53A1     6.267560    36B2     6.743590
      36B1     6.757482    20A2     6.786142    54A1     6.786142
      55A1     6.978587    21A2     7.077892    56A1     7.077893
      22A2     7.104902    57A1     7.105151    37B2     7.174228
      37B1     7.174234    38B2     7.290923    38B1     7.301319
      58A1     7.375425    23A2     7.375486    39B2     7.407341
      39B1     7.419298    40B2     7.496208    40B1     7.496215
      59A1     7.586136    60A1     7.948346    61A1     8.119544
      24A2     8.119559    41B2     8.207624    41B1     8.207626
      25A2     8.338511    62A1     8.338592    42B2     8.541332
      42B1     8.551909    63A1     8.601870    64A1     8.968412
      65A1     9.672352    43B2     9.870521    43B1     9.883516
      26A2    10.143580    66A1    10.143685    44B2    10.920759
      44B1    10.931055    67A1    11.546692    45B2    12.322101
      45B1    12.322101    68A1    12.403137    27A2    12.403137
      46B2    12.674634    46B1    12.677979    47B2    12.681663
      47B1    12.686858    69A1    13.077771    28A2    13.080057
      70A1    13.149568    48B2    13.259490    48B1    13.279559
      71A1    13.371685    49B2    14.490088    49B1    14.490088
      72A1    14.565884    29A2    14.565885    73A1    14.666381
      50B2    14.672072    50B1    14.690926    51B2    14.708505
      51B1    14.710533    74A1    14.724883    30A2    14.724958
      75A1    14.842017    31A2    15.436752    76A1    15.436954
      52B2    16.008902    52B1    16.015782    53B2    16.180185
      53B1    16.180185    77A1    16.383012    32A2    16.383012
      78A1    16.770832    54B2    16.935953    54B1    16.935958
      55B2    17.140241    55B1    17.156924    33A2    17.263184
      79A1    17.263334    56B2    17.550357    56B1    17.569832
      80A1    17.967063    34A2    17.979954    81A1    17.980157
      82A1    18.306890    83A1    19.031637    35A2    19.031637
      84A1    19.036595    57B2    19.200533    57B1    19.200571
      58B2    19.208411    58B1    19.224227    59B2    19.272449
      59B1    19.272472    85A1    19.575328    36A2    19.575381
      60B2    19.985108    60B1    20.005644    86A1    20.108871
      37A2    20.109280    87A1    20.246955    61B2    22.497366
      61B1    22.514896    38A2    22.638140    88A1    22.638163
      62B2    23.872101    89A1    23.874904    62B1    23.885844
      90A1    25.082560    91A1    51.751139    92A1    65.775231

    Beta Occupied:

       1A1   -20.693190     2A1   -15.699739     3A1    -1.573106
       4A1    -0.888334     1B2    -0.666803     5A1    -0.651041
       1B1    -0.613975

    Beta Virtual:

       6A1     0.061926     2B2     0.070168     2B1     0.079532
       7A1     0.085722     3B2     0.112003     3B1     0.124417
       8A1     0.132960     4B2     0.146514     4B1     0.171216
       9A1     0.224641    10A1     0.287299     1A2     0.287350
      11A1     0.322808     5B2     0.331114     5B1     0.335559
       6B2     0.393048     6B1     0.404111    12A1     0.406110
      13A1     0.452470     2A2     0.460533    14A1     0.461429
       7B2     0.518559     7B1     0.531506    15A1     0.574968
       8B2     0.688834     8B1     0.699097    16A1     0.700591
       9B2     0.772214     9B1     0.772219    17A1     0.790557
      18A1     0.880660    10B2     0.880772     3A2     0.881137
      10B1     0.888693    19A1     0.906152     4A2     0.932659
      20A1     0.932934    11B2     1.078589    11B1     1.078607
      12B2     1.111200    21A1     1.112657    12B1     1.125733
       5A2     1.164501    22A1     1.164659    23A1     1.232157
      13B2     1.285798    24A1     1.294810    13B1     1.298814
      14B2     1.470094    14B1     1.494256    25A1     1.515849
       6A2     1.516306    15B2     1.570494    26A1     1.576408
      15B1     1.591218    27A1     1.796878    16B2     2.090970
      16B1     2.113164     7A2     2.120556    28A1     2.120556
      29A1     2.251018    17B2     2.257729    17B1     2.257737
       8A2     2.340539    30A1     2.341313    18B2     2.354607
      18B1     2.354805    19B2     2.374173    19B1     2.393487
      31A1     2.407531     9A2     2.408018    32A1     2.512426
      33A1     2.517423    20B2     2.635039    10A2     2.652582
      34A1     2.652808    20B1     2.654850    35A1     2.682580
      11A2     2.728518    36A1     2.728519    21B2     2.883041
      21B1     2.883052    22B2     3.031667    22B1     3.047219
      37A1     3.062792    12A2     3.064464    38A1     3.099407
      23B2     3.213669    23B1     3.235980    24B2     3.309999
      24B1     3.310009    39A1     3.341822    13A2     3.365588
      40A1     3.370434    25B2     3.688363    25B1     3.722215
      41A1     3.822733    26B2     3.993187    26B1     4.020614
      42A1     4.106622    14A2     4.244176    43A1     4.245471
      27B2     4.695663    27B1     4.695663    44A1     4.839408
      15A2     4.891540    45A1     4.891540    28B2     4.979763
      28B1     5.012647    46A1     5.092648    29B2     5.289450
      29B1     5.328548    30B2     5.482711    30B1     5.482759
      47A1     5.532785    16A2     5.533715    31B2     5.592317
      31B1     5.612357    48A1     5.616807    17A2     5.616808
      49A1     5.638008    32B2     5.650627    32B1     5.650878
      50A1     5.814061    18A2     5.825944    51A1     5.846012
      33B2     5.897989    33B1     5.898328    19A2     5.913275
      52A1     5.913470    34B2     5.927493    34B1     5.954845
      35B2     6.210781    35B1     6.210781    53A1     6.279923
      36B2     6.750905    36B1     6.778803    20A2     6.787764
      54A1     6.787764    55A1     6.981701    21A2     7.078454
      56A1     7.078459    22A2     7.122602    57A1     7.123205
      37B2     7.177116    37B1     7.177137    38B2     7.290341
      38B1     7.318402    23A2     7.402225    58A1     7.402541
      39B2     7.404785    39B1     7.429302    40B2     7.497961
      40B1     7.497990    59A1     7.593417    60A1     7.961933
      24A2     8.127125    61A1     8.127531    41B2     8.211973
      41B1     8.211985    25A2     8.342006    62A1     8.342348
      42B2     8.547535    42B1     8.582317    63A1     8.607007
      64A1     8.980390    65A1     9.678182    43B2     9.869413
      43B1     9.900969    26A2    10.154998    66A1    10.155565
      44B2    10.918263    44B1    10.950526    67A1    11.563599
      45B2    12.345600    45B1    12.345600    68A1    12.421195
      27A2    12.421195    46B2    12.690119    46B1    12.692357
      47B2    12.700167    47B1    12.736521    69A1    13.088226
      28A2    13.092285    70A1    13.159993    48B2    13.267431
      48B1    13.299021    71A1    13.382192    49B2    14.534768
      49B1    14.534772    72A1    14.601104    29A2    14.601112
      50B2    14.678722    73A1    14.683476    50B1    14.707505
      51B2    14.735670    51B1    14.738546    74A1    14.743575
      30A2    14.744142    75A1    14.854927    31A2    15.463467
      76A1    15.464074    52B2    16.001922    52B1    16.041103
      53B2    16.181661    53B1    16.181661    77A1    16.383817
      32A2    16.383817    78A1    16.778733    54B2    16.937522
      54B1    16.937535    55B2    17.141602    55B1    17.179823
      33A2    17.272636    79A1    17.273009    56B2    17.553342
      56B1    17.585362    80A1    17.973986    81A1    18.013730
      34A2    18.013783    82A1    18.311035    83A1    19.035173
      35A2    19.035174    84A1    19.045075    57B2    19.205376
      57B1    19.205801    58B2    19.215693    58B1    19.246897
      59B2    19.274646    59B1    19.274875    85A1    19.578447
      36A2    19.578497    60B2    19.981715    60B1    20.016326
      86A1    20.110743    37A2    20.112100    87A1    20.249300
      61B2    22.493008    61B1    22.527386    38A2    22.644000
      88A1    22.644067    62B2    23.864939    89A1    23.878126
      62B1    23.898608    90A1    25.084468    91A1    51.764872
      92A1    65.777412

    Final Occupation by Irrep:
             A1    A2    B1    B2
    DOCC [     5,    0,    1,    1 ]
    SOCC [     0,    0,    1,    0 ]

  @UHF Final Energy:  -129.30747076569691

   => Energetics <=

    Nuclear Repulsion Energy =             25.5577454905109107
    One-Electron Energy =                -227.3785018218383698
    Two-Electron Energy =                  72.5132855656305395
    Total Energy =                       -129.3074707656969053

  UHF NO Occupations:
  HONO-2 :    1 B1 1.9963987
  HONO-1 :    1 B2 1.9676988
  HONO-0 :    2 B1 1.0000000
  LUNO+0 :    2 B2 0.0323012
  LUNO+1 :    3 B1 0.0036013
  LUNO+2 :    6 A1 0.0024414
  LUNO+3 :    7 A1 0.0003536

Computation Completed

Properties will be evaluated at   0.000000,   0.000000,   0.000000 [a0]

Properties computed using the SCF density matrix

  Nuclear Dipole Moment: [e a0]
     X:     0.0000      Y:     0.0000      Z:    -0.0044

  Electronic Dipole Moment: [e a0]
     X:     0.0000      Y:     0.0000      Z:     0.1026

  Dipole Moment: [e a0]
     X:     0.0000      Y:     0.0000      Z:     0.0982     Total:     0.0982

  Dipole Moment: [D]
     X:     0.0000      Y:     0.0000      Z:     0.2497     Total:     0.2497

*** tstop() called on n412-045.vsc4.prov at Fri Jan 22 03:20:43 2021
Module time:
	user time   =     266.53 seconds =       4.44 minutes
	system time =      18.44 seconds =       0.31 minutes
	total time  =        208 seconds =       3.47 minutes
Total time:
	user time   =     266.53 seconds =       4.44 minutes
	system time =      18.44 seconds =       0.31 minutes
	total time  =        208 seconds =       3.47 minutes

*** tstart() called on n412-045.vsc4.prov
*** at Fri Jan 22 03:20:43 2021

	Wfn Parameters:
	--------------------
	Wavefunction         = CCSD_T
	Number of irreps     = 4
	Number of MOs        = 254
	Number of active MOs = 252
	AO-Basis             = NONE
	Semicanonical        = false
	Reference            = UHF
	Print Level          = 1

	IRREP	# MOs	# FZDC	# DOCC	# SOCC	# VIRT	# FZVR
	-----	-----	------	------	------	------	------
	 A1	   92	    2	    3	    0	    87	    0
	 A2	   38	    0	    0	    0	    38	    0
	 B1	   62	    0	    1	    1	    60	    0
	 B2	   62	    0	    1	    0	    61	    0
	Transforming integrals...
	IWL integrals will be deleted.
	(OO|OO)...
	Presorting SO-basis two-electron integrals.
	Sorting File: SO Ints (nn|nn) nbuckets = 1
	Constructing frozen core operators
	Starting AA/AB first half-transformation.
	Sorting AA/AB half-transformed integrals.
	Starting BB first half-transformation.
	Sorting BB half-transformed integrals.
	First half integral transformation complete.
	Starting AA second half-transformation.
	Starting AB second half-transformation.
	Starting BB second half-transformation.
	Two-electron integral transformation complete.
	(OO|OV)...
	Starting AA second half-transformation.
	Starting AB second half-transformation.
	Starting BB second half-transformation.
	Two-electron integral transformation complete.
	(OO|VV)...
	Starting AA second half-transformation.
	Starting AB second half-transformation.
	Starting BB second half-transformation.
	Two-electron integral transformation complete.
	(OV|OO)...
	Starting AA/AB first half-transformation.
	Sorting AA/AB half-transformed integrals.
	Starting BB first half-transformation.
	Sorting BB half-transformed integrals.
	First half integral transformation complete.
	Starting AA second half-transformation.
	Starting AB second half-transformation.
	Starting BB second half-transformation.
	Two-electron integral transformation complete.
	(OV|OV)...
	Starting AA second half-transformation.
	Starting AB second half-transformation.
	Starting BB second half-transformation.
	Two-electron integral transformation complete.
	(OV|VV)...
	Starting AA second half-transformation.
	Starting AB second half-transformation.
	Starting BB second half-transformation.
	Two-electron integral transformation complete.
	(VV|OO)...
	Starting AA/AB first half-transformation.
	Sorting AA/AB half-transformed integrals.
	Starting BB first half-transformation.
	Sorting BB half-transformed integrals.
	First half integral transformation complete.
	Starting AA second half-transformation.
	Starting AB second half-transformation.
	Starting BB second half-transformation.
	Two-electron integral transformation complete.
	(VV|OV)...
	Starting AA second half-transformation.
	Starting AB second half-transformation.
	Starting BB second half-transformation.
	Two-electron integral transformation complete.
	(VV|VV)...
	Starting AA second half-transformation.
	Starting AB second half-transformation.
	Starting BB second half-transformation.
	Two-electron integral transformation complete.
	Frozen core energy     =   -115.70862134318992

	Size of irrep 0 of <AB|CD> integrals:     64.706 (MW) /    517.647 (MB)
	Size of irrep 1 of <AB|CD> integrals:     48.525 (MW) /    388.201 (MB)
	Size of irrep 2 of <AB|CD> integrals:     56.821 (MW) /    454.572 (MB)
	Size of irrep 3 of <AB|CD> integrals:     57.563 (MW) /    460.501 (MB)
	Total:                                   227.615 (MW) /   1820.921 (MB)

	Size of irrep 0 of <ab|cd> integrals:     65.675 (MW) /    525.399 (MB)
	Size of irrep 1 of <ab|cd> integrals:     49.379 (MW) /    395.030 (MB)
	Size of irrep 2 of <ab|cd> integrals:     58.141 (MW) /    465.125 (MB)
	Size of irrep 3 of <ab|cd> integrals:     58.141 (MW) /    465.125 (MB)
	Total:                                   231.335 (MW) /   1850.678 (MB)

	Size of irrep 0 of <Ab|Cd> integrals:    268.763 (MW) /   2150.106 (MB)
	Size of irrep 1 of <Ab|Cd> integrals:    195.804 (MW) /   1566.432 (MB)
	Size of irrep 2 of <Ab|Cd> integrals:    229.917 (MW) /   1839.333 (MB)
	Size of irrep 3 of <Ab|Cd> integrals:    231.405 (MW) /   1851.240 (MB)
	Total:                                   925.889 (MW) /   7407.110 (MB)

	Size of irrep 0 of <IA|BC> integrals:      7.220 (MW) /     57.757 (MB)
	Size of irrep 1 of <IA|BC> integrals:      4.124 (MW) /     32.991 (MB)
	Size of irrep 2 of <IA|BC> integrals:      5.910 (MW) /     47.278 (MB)
	Size of irrep 3 of <IA|BC> integrals:      5.250 (MW) /     42.002 (MB)
	Total:                                    22.503 (MW) /    180.028 (MB)

	Size of irrep 0 of <ia|bc> integrals:      6.302 (MW) /     50.418 (MB)
	Size of irrep 1 of <ia|bc> integrals:      3.317 (MW) /     26.534 (MB)
	Size of irrep 2 of <ia|bc> integrals:      4.697 (MW) /     37.576 (MB)
	Size of irrep 3 of <ia|bc> integrals:      4.697 (MW) /     37.576 (MB)
	Total:                                    19.013 (MW) /    152.104 (MB)

	Size of irrep 0 of <Ia|Bc> integrals:      7.279 (MW) /     58.231 (MB)
	Size of irrep 1 of <Ia|Bc> integrals:      4.156 (MW) /     33.247 (MB)
	Size of irrep 2 of <Ia|Bc> integrals:      5.989 (MW) /     47.915 (MB)
	Size of irrep 3 of <Ia|Bc> integrals:      5.263 (MW) /     42.107 (MB)
	Total:                                    22.688 (MW) /    181.501 (MB)

	Size of irrep 0 of <iA|bC> integrals:      6.263 (MW) /     50.100 (MB)
	Size of irrep 1 of <iA|bC> integrals:      3.288 (MW) /     26.307 (MB)
	Size of irrep 2 of <iA|bC> integrals:      4.625 (MW) /     36.998 (MB)
	Size of irrep 3 of <iA|bC> integrals:      4.685 (MW) /     37.482 (MB)
	Total:                                    18.861 (MW) /    150.887 (MB)

	Size of irrep 0 of tIjAb amplitudes:       0.197 (MW) /      1.574 (MB)
	Size of irrep 1 of tIjAb amplitudes:       0.042 (MW) /      0.336 (MB)
	Size of irrep 2 of tIjAb amplitudes:       0.136 (MW) /      1.092 (MB)
	Size of irrep 3 of tIjAb amplitudes:       0.091 (MW) /      0.730 (MB)
	Total:                                     0.466 (MW) /      3.732 (MB)

	Nuclear Rep. energy          =     25.55774549051091
	SCF energy                   =   -129.30747076569691
	One-electron energy          =    -68.78785695556033
	Two-electron (AA) energy     =      7.34630805121107
	Two-electron (BB) energy     =      4.98112615490761
	Two-electron (AB) energy     =     17.30382783642408
	Two-electron energy          =     29.63126204254276
	Reference energy             =   -129.30747076569656

*** tstop() called on n412-045.vsc4.prov at Fri Jan 22 03:26:16 2021
Module time:
	user time   =     108.62 seconds =       1.81 minutes
	system time =      67.51 seconds =       1.13 minutes
	total time  =        333 seconds =       5.55 minutes
Total time:
	user time   =     375.15 seconds =       6.25 minutes
	system time =      85.95 seconds =       1.43 minutes
	total time  =        541 seconds =       9.02 minutes
            **************************
            *                        *
            *        CCENERGY        *
            *                        *
            **************************

      * MP2 total energy                      = -129.744471946584866
      * CCSD total energy                     = -129.746589184502170
      * CCSD(T) total energy                     = -129.768137133986585
*** Psi4 exiting successfully. Buy a developer a beer!
