                               Psi4 1.4a3.dev88

  ==> Input File <==

--------------------------------------------------------------------------
# Any line starting with the # character is a comment line
memory 250000 mb
molecule molecule{
0 2
O          0.0000000000        0.0000000000       -0.5412437487
N          0.0000000000        0.0000000000        0.6182452136
}

set {
  reference uhf
  basis aug-cc-pV(6+d)Z
  scf_type OUT_OF_CORE
  freeze_core true
}

energy('ccsd(t)')
--------------------------------------------------------------------------

    Molecular point group: c2v

    Geometry (in Angstrom), charge = 0, multiplicity = 2:

       Center              X                  Y                   Z               Mass
    ------------   -----------------  -----------------  -----------------  -----------------
         O            0.000000000000     0.000000000000    -0.541249946785    15.994914619570
         N            0.000000000000     0.000000000000     0.618239015515    14.003074004430

  Charge       = 0
  Multiplicity = 2
  Basis Set: AUG-CC-PV(6+D)Z
    Blend: AUG-CC-PV(6+D)Z

    Orbital Energies [Eh]
    ---------------------

    Alpha Occupied:

       1A1   -20.697553     2A1   -15.736000     3A1    -1.603814
       4A1    -0.972368     1B2    -0.786496     5A1    -0.698294
       1B1    -0.639211     2B2    -0.431846

    Alpha Virtual:

       6A1     0.051293     2B1     0.063084     7A1     0.068033
       3B2     0.069023     3B1     0.074709     4B2     0.105147
       8A1     0.106101     4B1     0.116607     9A1     0.182655
      10A1     0.251777     1A2     0.251981     5B2     0.257366
       5B1     0.258135    11A1     0.272707     6B2     0.310879
      12A1     0.311929     6B1     0.316870    13A1     0.376025
       7B2     0.397313     2A2     0.400175    14A1     0.400314
       7B1     0.413428    15A1     0.442466     8B2     0.555378
       8B1     0.557786    16A1     0.590982     9B1     0.607488
       9B2     0.607490    17A1     0.660804    10B1     0.685541
      18A1     0.685646     3A2     0.685769    10B2     0.686615
      19A1     0.722679     4A2     0.778924    20A1     0.779042
      11B2     0.881815    11B1     0.882705    12B2     0.883247
      12B1     0.888537    21A1     0.894789    22A1     0.968209
       5A2     0.971240    23A1     0.972712    13B2     0.994273
      24A1     0.999829    13B1     1.007630    14B2     1.137065
      14B1     1.144248    15B2     1.195454    15B1     1.214423
      25A1     1.218787     6A2     1.262981    26A1     1.263021
      27A1     1.322741     7A2     1.607215    28A1     1.607215
      16B2     1.614323    16B1     1.617651    29A1     1.733949
      17B1     1.759896    17B2     1.759899     8A2     1.772561
      30A1     1.772898    31A1     1.783925    18B2     1.785823
      18B1     1.785828    19B1     1.843041    19B2     1.846176
      32A1     1.901290     9A2     1.902025    33A1     1.956037
      20B2     2.044671    20B1     2.047590    10A2     2.121720
      34A1     2.121739    11A2     2.157961    35A1     2.157961
      36A1     2.208324    21B1     2.277468    21B2     2.277469
      37A1     2.323371    22B2     2.326894    22B1     2.330874
      38A1     2.413478    12A2     2.413728    39A1     2.442002
      23B1     2.448149    23B2     2.448343    24B1     2.628119
      24B2     2.628120    13A2     2.656828    40A1     2.656828
      25B2     2.768018    25B1     2.776204    41A1     2.818556
      26B2     2.944570    26B1     2.957577    42A1     3.034300
      27B1     3.260768    27B2     3.264893    43A1     3.379822
      14A2     3.383073    44A1     3.388873    28B2     3.410422
      28B1     3.410422    45A1     3.655296    15A2     3.655296
      29B1     3.891022    29B2     3.894791    46A1     3.949886
      47A1     4.017071    16A2     4.018643    30B1     4.043953
      30B2     4.043955    48A1     4.048468    31B2     4.127669
      31B1     4.127669    32B1     4.172673    32B2     4.180434
      49A1     4.180491    17A2     4.265212    50A1     4.265212
      18A2     4.383128    51A1     4.383190    33B1     4.501550
      33B2     4.501550    19A2     4.530823    52A1     4.530872
      34B1     4.560203    34B2     4.560239    35B1     4.617845
      35B2     4.625393    53A1     4.636377    54A1     4.907042
      55A1     5.076880    20A2     5.076880    56A1     5.113894
      21A2     5.113945    36B1     5.131058    36B2     5.139674
      37B1     5.271237    37B2     5.271243    57A1     5.339999
      38B1     5.390011    38B2     5.398342    39B1     5.451680
      39B2     5.451683    22A2     5.474528    58A1     5.474591
      23A2     5.478454    59A1     5.478504    40B1     5.671383
      40B2     5.682835    60A1     5.692556    41B1     6.018853
      41B2     6.022012    24A2     6.137588    61A1     6.137611
      62A1     6.296605    25A2     6.296773    63A1     6.470433
      64A1     6.502006    42B1     6.514313    42B2     6.518896
      43B1     6.617104    43B2     6.617117    65A1     6.768782
      66A1     7.154538    26A2     7.158113    67A1     7.158113
      44B1     7.297392    44B2     7.297392    45B1     7.438640
      45B2     7.446303    27A2     7.965596    68A1     7.965645
      69A1     8.047640    28A2     8.047640    70A1     8.198938
      46B1     8.309860    46B2     8.309860    47B1     8.373036
      47B2     8.380972    71A1     8.384613    29A2     8.384614
      48B1     8.474945    48B2     8.474976    72A1     8.562310
      30A2     8.563390    49B1     8.586873    49B2     8.602315
      73A1     8.635726    50B1     8.756279    50B2     8.768827
      51B1     8.923246    51B2     8.923248    74A1     9.000812
      31A2     9.000923    75A1     9.358192    32A2     9.361170
      76A1     9.361170    52B1     9.567176    52B2     9.567178
      77A1     9.595015    53B1     9.625558    53B2     9.641992
      54B1     9.819822    54B2     9.819822    78A1     9.961961
      33A2     9.962266    79A1    10.148080    34A2    10.148080
      80A1    10.197741    55B1    10.467479    55B2    10.467700
      56B1    10.518141    56B2    10.538741    81A1    10.694209
      57B1    10.795051    57B2    10.795051    35A2    10.830665
      82A1    10.830715    83A1    10.931920    36A2    10.931920
      58B1    11.176853    58B2    11.183502    59B1    11.187372
      59B2    11.195852    37A2    11.216670    84A1    11.216670
      85A1    11.262569    86A1    11.467341    38A2    11.467356
      39A2    11.611746    87A1    11.611831    60B1    11.794496
      60B2    11.812730    61B1    11.994944    61B2    11.994945
      88A1    12.077001    62B1    12.880674    62B2    12.897390
      89A1    12.982240    40A2    12.982460    90A1    13.025403
      41A2    13.025404    63B1    13.072123    63B2    13.072128
      91A1    13.200464    64B1    13.537457    64B2    13.556281
      92A1    13.838805    42A2    13.839098    93A1    13.890001
      65B1    14.093443    65B2    14.113511    66B1    14.237841
      66B2    14.237893    94A1    14.664189    95A1    14.872461
      43A2    15.285349    96A1    15.285404    44A2    16.274167
      97A1    16.274273    67B1    16.528575    67B2    16.546019
      68B1    16.741081    68B2    16.756451    98A1    17.238876
      45A2    17.238876    69B1    17.319569    69B2    17.319569
      99A1    17.374990   100A1    17.596322    46A2    17.596322
      70B1    18.156681    70B2    18.156682   101A1    18.523742
      47A2    18.530752   102A1    18.553346   103A1    19.077060
      71B1    19.320530    71B2    19.339255    72B1    19.551397
      72B2    19.569866    73B1    20.147321    73B2    20.147321
     104A1    20.277180    48A2    20.277182   105A1    20.383832
      49A2    20.384860    74B1    20.415648    74B2    20.439655
      75B1    20.517419    75B2    20.517705   106A1    20.578035
      76B1    20.943435    76B2    20.943436   107A1    21.617330
      50A2    22.003731   108A1    22.003979   109A1    22.552562
      51A2    22.675747   110A1    22.675747    77B1    22.825175
      77B2    22.825175    78B1    23.291125   111A1    23.309363
      52A2    23.309363    78B2    23.310082    79B1    23.747574
      79B2    23.761803   112A1    23.811267    80B1    23.845883
      80B2    23.845913   113A1    23.858799    53A2    23.858799
      81B1    24.290361    81B2    24.290362   114A1    24.401292
      54A2    24.401868   115A1    24.686797    82B1    25.213257
      82B2    25.237446   116A1    25.691217    55A2    25.691480
     117A1    26.203326    83B1    26.250930    83B2    26.274241
      84B1    26.755257    84B2    26.755257   118A1    26.926693
      56A2    26.926693   119A1    27.318105    85B1    27.371653
      85B2    27.371665   120A1    27.440779    57A2    27.441001
      86B1    27.709157    86B2    27.731285   121A1    28.064845
      58A2    28.539370   122A1    28.539417    87B1    28.712882
      87B2    28.712882    88B1    30.411281    88B2    30.429675
     123A1    30.758177    59A2    30.771116   124A1    30.780765
      60A2    31.448565   125A1    31.448565    89B1    31.852212
      89B2    31.873985    90B1    31.909670    90B2    31.909718
     126A1    32.570991    61A2    32.571227   127A1    33.433481
      91B1    33.860979    91B2    33.883934   128A1    34.080908
      62A2    35.066722   129A1    35.066765    92B1    37.295809
      92B2    37.312634   130A1    39.839244   131A1    82.260655
     132A1   105.635797

    Beta Occupied:

       1A1   -20.693138     2A1   -15.699711     3A1    -1.573078
       4A1    -0.888324     1B1    -0.666808     5A1    -0.651037
       1B2    -0.613975

    Beta Virtual:

       6A1     0.051406     2B1     0.061816     2B2     0.067119
       7A1     0.069545     3B1     0.091743     3B2     0.098938
       8A1     0.106450     4B1     0.126365     4B2     0.156964
       9A1     0.183215    10A1     0.253646     1A2     0.253834
       5B1     0.260984     5B2     0.265765    11A1     0.274150
      12A1     0.318504     6B1     0.325155     6B2     0.332903
      13A1     0.375841     2A2     0.399843    14A1     0.400019
       7B1     0.412560     7B2     0.424683    15A1     0.444819
       8B1     0.556805     8B2     0.563762    16A1     0.598479
       9B1     0.608806     9B2     0.608811    17A1     0.670172
      10B1     0.685803     3A2     0.690313    18A1     0.690685
      10B2     0.690756    19A1     0.744840     4A2     0.793966
      20A1     0.794160    11B1     0.882606    11B2     0.882616
      21A1     0.894512    12B1     0.895640    12B2     0.907774
       5A2     0.972631    22A1     0.972685    23A1     0.976898
      24A1     1.003510    13B1     1.018671    13B2     1.032292
      14B1     1.150845    14B2     1.164739    15B1     1.197772
      15B2     1.217044    25A1     1.224211    26A1     1.267208
       6A2     1.267284    27A1     1.333783     7A2     1.610209
      28A1     1.610209    16B1     1.615946    16B2     1.630154
      29A1     1.740061    17B1     1.772556    17B2     1.772569
       8A2     1.777626    30A1     1.778534    31A1     1.786230
      18B1     1.787645    18B2     1.787656    19B1     1.843019
      19B2     1.854029    32A1     1.945238     9A2     1.946264
      33A1     1.958849    20B1     2.055265    20B2     2.073283
      34A1     2.129284    10A2     2.129300    35A1     2.157932
      11A2     2.157932    36A1     2.221827    21B1     2.278270
      21B2     2.278282    37A1     2.335954    22B1     2.344689
      22B2     2.362541    38A1     2.416306    12A2     2.416659
      39A1     2.445839    23B1     2.456104    23B2     2.478123
      24B1     2.628567    24B2     2.628585    40A1     2.660638
      13A2     2.660680    25B1     2.777706    25B2     2.800244
      41A1     2.820949    26B1     2.940449    26B2     2.970773
      42A1     3.038887    27B1     3.262849    27B2     3.281271
      43A1     3.385719    14A2     3.401257    44A1     3.406279
      28B1     3.415364    28B2     3.415364    15A2     3.658583
      45A1     3.658583    29B1     3.894497    29B2     3.914838
      46A1     3.962656    47A1     4.022903    16A2     4.025163
      30B1     4.051521    30B2     4.051570    48A1     4.055920
      31B1     4.152928    31B2     4.153020    32B1     4.174950
      32B2     4.195228    49A1     4.197779    17A2     4.280396
      50A1     4.280396    51A1     4.399171    18A2     4.399277
      33B1     4.501285    33B2     4.501285    52A1     4.563250
      19A2     4.563441    34B1     4.572288    34B2     4.572454
      35B1     4.618871    35B2     4.642874    53A1     4.647122
      54A1     4.920573    20A2     5.078710    55A1     5.078711
      21A2     5.122539    56A1     5.122635    36B1     5.140395
      36B2     5.167166    37B1     5.272784    37B2     5.272832
      57A1     5.343844    38B1     5.387559    38B2     5.407796
      39B1     5.453167    39B2     5.453255    22A2     5.476930
      58A1     5.476932    23A2     5.491820    59A1     5.492432
      40B1     5.673266    40B2     5.696860    60A1     5.699636
      41B1     6.037905    41B2     6.074254    61A1     6.149710
      24A2     6.150398    25A2     6.302009    62A1     6.302098
      63A1     6.478321    64A1     6.508181    42B1     6.510061
      42B2     6.543027    43B1     6.621103    43B2     6.621139
      65A1     6.772361    66A1     7.165822    26A2     7.166431
      67A1     7.166431    44B1     7.303015    44B2     7.303015
      45B1     7.436419    45B2     7.470531    27A2     7.974847
      68A1     7.975047    69A1     8.052027    28A2     8.052027
      70A1     8.212457    46B1     8.326127    46B2     8.326127
      47B1     8.367243    71A1     8.395950    29A2     8.395950
      47B2     8.400440    48B1     8.481950    48B2     8.482057
      72A1     8.565952    30A2     8.567847    49B1     8.589450
      49B2     8.614084    73A1     8.641179    50B1     8.760943
      50B2     8.788893    51B1     8.941265    51B2     8.941274
      74A1     9.019010    31A2     9.019376    75A1     9.360829
      32A2     9.360829    76A1     9.370020    52B1     9.597706
      52B2     9.597756    77A1     9.600627    53B1     9.627875
      53B2     9.657574    54B1     9.820313    54B2     9.820313
      78A1     9.969596    33A2     9.970114    79A1    10.177878
      34A2    10.177881    80A1    10.206099    55B1    10.482148
      55B2    10.482804    56B1    10.526173    56B2    10.557582
      81A1    10.708112    57B1    10.795566    57B2    10.795566
      35A2    10.845633    82A1    10.845957    36A2    10.933795
      83A1    10.933795    58B1    11.176192    58B2    11.185829
      59B1    11.190421    59B2    11.203295    37A2    11.217726
      84A1    11.217726    85A1    11.266246    38A2    11.480493
      86A1    11.480673    39A2    11.641919    87A1    11.642112
      60B1    11.795108    60B2    11.826140    61B1    11.999674
      61B2    11.999676    88A1    12.086586    62B1    12.891372
      62B2    12.927030    89A1    12.992218    40A2    12.992474
      90A1    13.027965    41A2    13.027968    63B1    13.076496
      63B2    13.076528    91A1    13.209918    64B1    13.536644
      64B2    13.570116    92A1    13.842945    42A2    13.844468
      93A1    13.897507    65B1    14.089980    65B2    14.124385
      66B1    14.240743    66B2    14.240906    94A1    14.670390
      95A1    14.874957    43A2    15.290770    96A1    15.290933
      44A2    16.280487    97A1    16.280820    67B1    16.529522
      67B2    16.560597    68B1    16.741103    68B2    16.776573
      98A1    17.256501    45A2    17.256501    69B1    17.333802
      69B2    17.333802    99A1    17.382315   100A1    17.607668
      46A2    17.607668    70B1    18.165423    70B2    18.165425
     101A1    18.528873    47A2    18.538080   102A1    18.564026
     103A1    19.088846    71B1    19.324932    71B2    19.354705
      72B1    19.562743    72B2    19.599237    73B1    20.172726
      73B2    20.172726   104A1    20.297186    48A2    20.297192
     105A1    20.396883    49A2    20.398694    74B1    20.421271
      74B2    20.452954    75B1    20.534992    75B2    20.535538
     106A1    20.588508    76B1    20.977378    76B2    20.977381
     107A1    21.632011    50A2    22.024203   108A1    22.024701
     109A1    22.559337    51A2    22.676887   110A1    22.676887
      77B1    22.825806    77B2    22.825806    78B1    23.291513
     111A1    23.310409    52A2    23.310409    78B2    23.326242
      79B1    23.743357    79B2    23.778400   112A1    23.819016
      80B1    23.850536    80B2    23.850650   113A1    23.888835
      53A2    23.888835    81B1    24.310076    81B2    24.310081
     114A1    24.407976    54A2    24.408909   115A1    24.690399
      82B1    25.221587    82B2    25.257551   116A1    25.705805
      55A2    25.706338   117A1    26.215045    83B1    26.254359
      83B2    26.286200    84B1    26.757718    84B2    26.757718
     118A1    26.928290    56A2    26.928290   119A1    27.321341
      85B1    27.372866    85B2    27.372897   120A1    27.441659
      57A2    27.442098    86B1    27.706163    86B2    27.737614
     121A1    28.066237    58A2    28.564814   122A1    28.564955
      87B1    28.717378    87B2    28.717379    88B1    30.417777
      88B2    30.448140   123A1    30.755759    59A2    30.775194
     124A1    30.794021    60A2    31.452153   125A1    31.452153
      89B1    31.847591    89B2    31.883058    90B1    31.912061
      90B2    31.912230   126A1    32.572872    61A2    32.573428
     127A1    33.435139    91B1    33.857321    91B2    33.893146
     128A1    34.084185    62A2    35.070699   129A1    35.070857
      92B1    37.291195    92B2    37.321728   130A1    39.841144
     131A1    82.269667   132A1   105.637126

    Final Occupation by Irrep:
             A1    A2    B1    B2
    DOCC [     5,    0,    1,    1 ]
    SOCC [     0,    0,    0,    1 ]

  @UHF Final Energy:  -129.30768855068413

   => Energetics <=

    Nuclear Repulsion Energy =             25.5577454905109107
    One-Electron Energy =                -227.3792153772510574
    Two-Electron Energy =                  72.5137813360560131
    Total Energy =                       -129.3076885506841336

  UHF NO Occupations:
  HONO-2 :    1 B2 1.9963984
  HONO-1 :    1 B1 1.9676781
  HONO-0 :    2 B2 1.0000000
  LUNO+0 :    2 B1 0.0323219
  LUNO+1 :    3 B2 0.0036016
  LUNO+2 :    6 A1 0.0024419
  LUNO+3 :    7 A1 0.0003538

Computation Completed

Properties will be evaluated at   0.000000,   0.000000,   0.000000 [a0]

Properties computed using the SCF density matrix

  Nuclear Dipole Moment: [e a0]
     X:     0.0000      Y:     0.0000      Z:    -0.0044

  Electronic Dipole Moment: [e a0]
     X:     0.0000      Y:     0.0000      Z:     0.1026

  Dipole Moment: [e a0]
     X:     0.0000      Y:     0.0000      Z:     0.0982     Total:     0.0982

  Dipole Moment: [D]
     X:     0.0000      Y:     0.0000      Z:     0.2496     Total:     0.2496

*** tstop() called on n412-047.vsc4.prov at Sat Jan 23 20:30:03 2021
Module time:
	user time   =    1020.81 seconds =      17.01 minutes
	system time =      81.82 seconds =       1.36 minutes
	total time  =       1204 seconds =      20.07 minutes
Total time:
	user time   =    1020.81 seconds =      17.01 minutes
	system time =      81.82 seconds =       1.36 minutes
	total time  =       1204 seconds =      20.07 minutes

*** tstart() called on n412-047.vsc4.prov
*** at Sat Jan 23 20:30:03 2021

	Wfn Parameters:
	--------------------
	Wavefunction         = CCSD_T
	Number of irreps     = 4
	Number of MOs        = 378
	Number of active MOs = 376
	AO-Basis             = NONE
	Semicanonical        = false
	Reference            = UHF
	Print Level          = 1

	IRREP	# MOs	# FZDC	# DOCC	# SOCC	# VIRT	# FZVR
	-----	-----	------	------	------	------	------
	 A1	   132	    2	    3	    0	    127	    0
	 A2	   62	    0	    0	    0	    62	    0
	 B1	   92	    0	    1	    0	    91	    0
	 B2	   92	    0	    1	    1	    90	    0
	Transforming integrals...
	IWL integrals will be deleted.
	(OO|OO)...
	Presorting SO-basis two-electron integrals.
	Sorting File: SO Ints (nn|nn) nbuckets = 1
	Constructing frozen core operators
	Starting AA/AB first half-transformation.
	Sorting AA/AB half-transformed integrals.
	Starting BB first half-transformation.
	Sorting BB half-transformed integrals.
	First half integral transformation complete.
	Starting AA second half-transformation.
	Starting AB second half-transformation.
	Starting BB second half-transformation.
	Two-electron integral transformation complete.
	(OO|OV)...
	Starting AA second half-transformation.
	Starting AB second half-transformation.
	Starting BB second half-transformation.
	Two-electron integral transformation complete.
	(OO|VV)...
	Starting AA second half-transformation.
	Starting AB second half-transformation.
	Starting BB second half-transformation.
	Two-electron integral transformation complete.
	(OV|OO)...
	Starting AA/AB first half-transformation.
	Sorting AA/AB half-transformed integrals.
	Starting BB first half-transformation.
	Sorting BB half-transformed integrals.
	First half integral transformation complete.
	Starting AA second half-transformation.
	Starting AB second half-transformation.
	Starting BB second half-transformation.
	Two-electron integral transformation complete.
	(OV|OV)...
	Starting AA second half-transformation.
	Starting AB second half-transformation.
	Starting BB second half-transformation.
	Two-electron integral transformation complete.
	(OV|VV)...
	Starting AA second half-transformation.
	Starting AB second half-transformation.
	Starting BB second half-transformation.
	Two-electron integral transformation complete.
	(VV|OO)...
	Starting AA/AB first half-transformation.
	Sorting AA/AB half-transformed integrals.
	Starting BB first half-transformation.
	Sorting BB half-transformed integrals.
	First half integral transformation complete.
	Starting AA second half-transformation.
	Starting AB second half-transformation.
	Starting BB second half-transformation.
	Two-electron integral transformation complete.
	(VV|OV)...

      * MP2 total energy                      = -129.749427097157138
      * CCSD total energy                     = -129.749967607234225
      * CCSD(T) total energy                     = -129.771715268292240
*** Psi4 exiting successfully. Buy a developer a beer!
