                               Psi4 1.4a3.dev88

  ==> Input File <==

--------------------------------------------------------------------------
# Any line starting with the # character is a comment line
memory 250000 mb
molecule molecule{
0 2
O          0.0000000000        0.0000000000       -0.5412437487
N          0.0000000000        0.0000000000        0.6182452136
}

set {
  reference uhf
  basis aug-cc-pV(t+d)Z
  scf_type OUT_OF_CORE
  freeze_core true
}

energy('ccsd(t)')
--------------------------------------------------------------------------

    Molecular point group: c2v

    Geometry (in Angstrom), charge = 0, multiplicity = 2:

       Center              X                  Y                   Z               Mass
    ------------   -----------------  -----------------  -----------------  -----------------
         O            0.000000000000     0.000000000000    -0.541249946785    15.994914619570
         N            0.000000000000     0.000000000000     0.618239015515    14.003074004430

  Charge       = 0
  Multiplicity = 2
  Basis Set: AUG-CC-PV(T+D)Z
    Blend: AUG-CC-PV(T+D)Z

    Orbital Energies [Eh]
    ---------------------

    Alpha Occupied:

       1A1   -20.701497     2A1   -15.738607     3A1    -1.605720
       4A1    -0.973163     1B2    -0.786568     5A1    -0.698572
       1B1    -0.639800     2B2    -0.431711

    Alpha Virtual:

       2B1     0.070492     6A1     0.084911     7A1     0.118064
       3B2     0.124859     3B1     0.130671     8A1     0.185430
       4B2     0.193569     4B1     0.207419     9A1     0.317757
       1A2     0.435207    10A1     0.435284    11A1     0.504248
       5B2     0.547632     5B1     0.554961    12A1     0.627391
       6B2     0.667313     6B1     0.680085    13A1     0.693605
       2A2     0.745125    14A1     0.745263     7B2     0.823052
       7B1     0.848217    15A1     0.874779    16A1     1.042729
       8B2     1.179883     8B1     1.203631    17A1     1.403240
       3A2     1.448207     9B1     1.449275     9B2     1.449275
      18A1     1.449678    10B2     1.583158    10B1     1.589350
      19A1     1.649153     4A2     1.649465    20A1     1.684745
      21A1     1.916619    11B2     1.936851    11B1     1.939231
      12B2     2.149059    12B1     2.149061     5A2     2.201429
      22A1     2.201584    23A1     2.431657    13B2     2.504364
      13B1     2.507203    24A1     2.674329     6A2     2.674878
      14B2     2.696709    14B1     2.715859    25A1     2.746723
      26A1     3.312715    15B2     3.707835    15B1     3.727995
      27A1     4.200692    16B2     4.543477    16B1     4.561740
      17B2     4.784816    17B1     4.784818    28A1     4.808108
       7A2     4.808139    29A1     5.017017     8A2     5.017190
      30A1     5.034082    18B2     5.041461    18B1     5.041480
      31A1     5.100993    32A1     5.557552    19B1     5.670598
      19B2     5.674344    20B2     6.444501    20B1     6.444502
      33A1     6.756053     9A2     6.756064    10A2     7.012246
      34A1     7.012360    21B1     7.345476    21B2     7.348428
      35A1     7.452323    22B1     7.452359    22B2     7.454159
      36A1     7.752201    37A1    13.086510    38A1    15.342055

    Beta Occupied:

       1A1   -20.696706     2A1   -15.702509     3A1    -1.574742
       4A1    -0.889113     1B1    -0.666414     5A1    -0.651450
       1B2    -0.614068

    Beta Virtual:

       2B1     0.082268     6A1     0.085307     2B2     0.103125
       7A1     0.121712     3B1     0.151150     3B2     0.167088
       8A1     0.186505     4B1     0.205806     4B2     0.223210
       9A1     0.319065    10A1     0.443744     1A2     0.443812
      11A1     0.512645     5B1     0.552332     5B2     0.561768
      12A1     0.650727    13A1     0.695841     6B1     0.696322
       6B2     0.713638     2A2     0.745245    14A1     0.745885
       7B1     0.858467     7B2     0.879667    15A1     0.892844
      16A1     1.054321     8B1     1.188124     8B2     1.209741
      17A1     1.416728     9B1     1.461434     9B2     1.461437
       3A2     1.502068    18A1     1.502490    10B1     1.597099
      10B2     1.618445    19A1     1.657776     4A2     1.659561
      20A1     1.697660    21A1     1.926381    11B1     1.940298
      11B2     1.963819    12B1     2.149884    12B2     2.149890
      22A1     2.209003     5A2     2.209057    23A1     2.435469
      13B1     2.505314    13B2     2.526633    24A1     2.679848
       6A2     2.681555    14B1     2.728177    25A1     2.754426
      14B2     2.760021    26A1     3.336457    15B1     3.740780
      15B2     3.779447    27A1     4.224412    16B1     4.552340
      16B2     4.591566    17B1     4.834673    17B2     4.834714
      28A1     4.845540     7A2     4.846374    29A1     5.051212
      18B1     5.064084    30A1     5.092154     8A2     5.094943
      18B2     5.098081    31A1     5.121893    32A1     5.569226
      19B1     5.673219    19B2     5.707152    20B1     6.448110
      20B2     6.448117    33A1     6.761773     9A2     6.761786
      10A2     7.021813    34A1     7.021845    21B1     7.336653
      21B2     7.373394    22B1     7.442924    35A1     7.458726
      22B2     7.478326    36A1     7.755999    37A1    13.108414
      38A1    15.349914

    Final Occupation by Irrep:
             A1    A2    B1    B2
    DOCC [     5,    0,    1,    1 ]
    SOCC [     0,    0,    0,    1 ]

  @UHF Final Energy:  -129.29708011995410

   => Energetics <=

    Nuclear Repulsion Energy =             25.5577454905109107
    One-Electron Energy =                -227.3390130278974084
    Two-Electron Energy =                  72.4841874174324090
    Total Energy =                       -129.2970801199541029

  UHF NO Occupations:
  HONO-2 :    1 B2 1.9964207
  HONO-1 :    1 B1 1.9692094
  HONO-0 :    2 B2 1.0000000
  LUNO+0 :    2 B1 0.0307906
  LUNO+1 :    3 B2 0.0035793
  LUNO+2 :    6 A1 0.0023976
  LUNO+3 :    7 A1 0.0003462

Computation Completed

Properties will be evaluated at   0.000000,   0.000000,   0.000000 [a0]

Properties computed using the SCF density matrix

  Nuclear Dipole Moment: [e a0]
     X:     0.0000      Y:     0.0000      Z:    -0.0044

  Electronic Dipole Moment: [e a0]
     X:     0.0000      Y:     0.0000      Z:     0.1038

  Dipole Moment: [e a0]
     X:     0.0000      Y:     0.0000      Z:     0.0994     Total:     0.0994

  Dipole Moment: [D]
     X:     0.0000      Y:     0.0000      Z:     0.2525     Total:     0.2525

*** tstop() called on n412-040.vsc4.prov at Tue Jan 26 18:22:19 2021
Module time:
	user time   =      41.53 seconds =       0.69 minutes
	system time =       1.23 seconds =       0.02 minutes
	total time  =          5 seconds =       0.08 minutes
Total time:
	user time   =      41.53 seconds =       0.69 minutes
	system time =       1.23 seconds =       0.02 minutes
	total time  =          5 seconds =       0.08 minutes

*** tstart() called on n412-040.vsc4.prov
*** at Tue Jan 26 18:22:19 2021

	Wfn Parameters:
	--------------------
	Wavefunction         = CCSD_T
	Number of irreps     = 4
	Number of MOs        = 92
	Number of active MOs = 90
	AO-Basis             = NONE
	Semicanonical        = false
	Reference            = UHF
	Print Level          = 1

	IRREP	# MOs	# FZDC	# DOCC	# SOCC	# VIRT	# FZVR
	-----	-----	------	------	------	------	------
	 A1	   38	    2	    3	    0	    33	    0
	 A2	   10	    0	    0	    0	    10	    0
	 B1	   22	    0	    1	    0	    21	    0
	 B2	   22	    0	    1	    1	    20	    0
	Transforming integrals...
	IWL integrals will be deleted.
	(OO|OO)...
	Presorting SO-basis two-electron integrals.
	Sorting File: SO Ints (nn|nn) nbuckets = 1
	Constructing frozen core operators
	Starting AA/AB first half-transformation.
	Sorting AA/AB half-transformed integrals.
	Starting BB first half-transformation.
	Sorting BB half-transformed integrals.
	First half integral transformation complete.
	Starting AA second half-transformation.
	Starting AB second half-transformation.
	Starting BB second half-transformation.
	Two-electron integral transformation complete.
	(OO|OV)...
	Starting AA second half-transformation.
	Starting AB second half-transformation.
	Starting BB second half-transformation.
	Two-electron integral transformation complete.
	(OO|VV)...
	Starting AA second half-transformation.
	Starting AB second half-transformation.
	Starting BB second half-transformation.
	Two-electron integral transformation complete.
	(OV|OO)...
	Starting AA/AB first half-transformation.
	Sorting AA/AB half-transformed integrals.
	Starting BB first half-transformation.
	Sorting BB half-transformed integrals.
	First half integral transformation complete.
	Starting AA second half-transformation.
	Starting AB second half-transformation.
	Starting BB second half-transformation.
	Two-electron integral transformation complete.
	(OV|OV)...
	Starting AA second half-transformation.
	Starting AB second half-transformation.
	Starting BB second half-transformation.
	Two-electron integral transformation complete.
	(OV|VV)...
	Starting AA second half-transformation.
	Starting AB second half-transformation.
	Starting BB second half-transformation.
	Two-electron integral transformation complete.
	(VV|OO)...
	Starting AA/AB first half-transformation.
	Sorting AA/AB half-transformed integrals.
	Starting BB first half-transformation.
	Sorting BB half-transformed integrals.
	First half integral transformation complete.
	Starting AA second half-transformation.
	Starting AB second half-transformation.
	Starting BB second half-transformation.
	Two-electron integral transformation complete.
	(VV|OV)...
	Starting AA second half-transformation.
	Starting AB second half-transformation.
	Starting BB second half-transformation.
	Two-electron integral transformation complete.
	(VV|VV)...
	Starting AA second half-transformation.
	Starting AB second half-transformation.
	Starting BB second half-transformation.
	Two-electron integral transformation complete.
	Frozen core energy     =   -115.70600040603854

	Size of irrep 0 of <AB|CD> integrals:      0.947 (MW) /      7.574 (MB)
	Size of irrep 1 of <AB|CD> integrals:      0.562 (MW) /      4.500 (MB)
	Size of irrep 2 of <AB|CD> integrals:      0.797 (MW) /      6.380 (MB)
	Size of irrep 3 of <AB|CD> integrals:      0.757 (MW) /      6.055 (MB)
	Total:                                     3.064 (MW) /     24.509 (MB)

	Size of irrep 0 of <ab|cd> integrals:      0.986 (MW) /      7.888 (MB)
	Size of irrep 1 of <ab|cd> integrals:      0.594 (MW) /      4.756 (MB)
	Size of irrep 2 of <ab|cd> integrals:      0.815 (MW) /      6.523 (MB)
	Size of irrep 3 of <ab|cd> integrals:      0.815 (MW) /      6.523 (MB)
	Total:                                     3.211 (MW) /     25.690 (MB)

	Size of irrep 0 of <Ab|Cd> integrals:      4.202 (MW) /     33.620 (MB)
	Size of irrep 1 of <Ab|Cd> integrals:      2.313 (MW) /     18.508 (MB)
	Size of irrep 2 of <Ab|Cd> integrals:      3.226 (MW) /     25.805 (MB)
	Size of irrep 3 of <Ab|Cd> integrals:      3.144 (MW) /     25.148 (MB)
	Total:                                    12.885 (MW) /    103.081 (MB)

	Size of irrep 0 of <IA|BC> integrals:      0.325 (MW) /      2.598 (MB)
	Size of irrep 1 of <IA|BC> integrals:      0.138 (MW) /      1.104 (MB)
	Size of irrep 2 of <IA|BC> integrals:      0.207 (MW) /      1.657 (MB)
	Size of irrep 3 of <IA|BC> integrals:      0.237 (MW) /      1.893 (MB)
	Total:                                     0.907 (MW) /      7.253 (MB)

	Size of irrep 0 of <ia|bc> integrals:      0.292 (MW) /      2.336 (MB)
	Size of irrep 1 of <ia|bc> integrals:      0.111 (MW) /      0.888 (MB)
	Size of irrep 2 of <ia|bc> integrals:      0.191 (MW) /      1.531 (MB)
	Size of irrep 3 of <ia|bc> integrals:      0.191 (MW) /      1.531 (MB)
	Total:                                     0.786 (MW) /      6.287 (MB)

	Size of irrep 0 of <Ia|Bc> integrals:      0.332 (MW) /      2.657 (MB)
	Size of irrep 1 of <Ia|Bc> integrals:      0.141 (MW) /      1.132 (MB)
	Size of irrep 2 of <Ia|Bc> integrals:      0.208 (MW) /      1.667 (MB)
	Size of irrep 3 of <Ia|Bc> integrals:      0.246 (MW) /      1.972 (MB)
	Total:                                     0.928 (MW) /      7.427 (MB)

	Size of irrep 0 of <iA|bC> integrals:      0.287 (MW) /      2.296 (MB)
	Size of irrep 1 of <iA|bC> integrals:      0.108 (MW) /      0.864 (MB)
	Size of irrep 2 of <iA|bC> integrals:      0.190 (MW) /      1.523 (MB)
	Size of irrep 3 of <iA|bC> integrals:      0.183 (MW) /      1.461 (MB)
	Total:                                     0.768 (MW) /      6.144 (MB)

	Size of irrep 0 of tIjAb amplitudes:       0.025 (MW) /      0.197 (MB)
	Size of irrep 1 of tIjAb amplitudes:       0.005 (MW) /      0.037 (MB)
	Size of irrep 2 of tIjAb amplitudes:       0.011 (MW) /      0.086 (MB)
	Size of irrep 3 of tIjAb amplitudes:       0.016 (MW) /      0.128 (MB)
	Total:                                     0.056 (MW) /      0.447 (MB)

	Nuclear Rep. energy          =     25.55774549051091
	SCF energy                   =   -129.29708011995410
	One-electron energy          =    -68.76632990898821
	Two-electron (AA) energy     =      7.34346973255769
	Two-electron (BB) energy     =      4.97759811351289
	Two-electron (AB) energy     =     17.29643685849206
	Two-electron energy          =     29.61750470456264
	Reference energy             =   -129.29708011995319

*** tstop() called on n412-040.vsc4.prov at Tue Jan 26 18:22:28 2021
Module time:
	user time   =       2.16 seconds =       0.04 minutes
	system time =       1.26 seconds =       0.02 minutes
	total time  =          9 seconds =       0.15 minutes
Total time:
	user time   =      43.69 seconds =       0.73 minutes
	system time =       2.49 seconds =       0.04 minutes
	total time  =         14 seconds =       0.23 minutes
            **************************
            *                        *
            *        CCENERGY        *
            *                        *
            **************************

    Nuclear Rep. energy (wfn)     =   25.557745490510911
    SCF energy          (wfn)     = -129.297080119954103
    Reference energy    (file100) = -129.297080119953193

    Input parameters:
    -----------------
    Wave function   =     CCSD_T
    Reference wfn   =     UHF
    Brueckner       =     No
    Memory (Mbytes) =     250000.0
    Maxiter         =     50
    R_Convergence   =     1.0e-07
    E_Convergence   =     1.0e-06
    Restart         =     Yes
    DIIS            =     Yes
    AO Basis        =     NONE
    ABCD            =     NEW
    Cache Level     =     2
    Cache Type      =     LRU
    Print Level     =     1
    Num. of threads =     48
    # Amps to Print =     10
    Print MP2 Amps? =     No
    Analyze T2 Amps =     No
    Print Pair Ener =     No
    Local CC        =     No
    SCS-MP2         =     False
    SCSN-MP2        =     False
    SCS-CCSD        =     False

MP2 correlation energy -0.4010486497186411
                Solving CC Amplitude Equations
                ------------------------------
  Iter             Energy              RMS        T1Diag      D1Diag    New D1Diag    D2Diag
  ----     ---------------------    ---------   ----------  ----------  ----------   --------
     0        -0.401048649718641    0.000e+00    0.000000    0.000000    0.000000    0.000000
     1        -0.388214287281126    1.012e-01    0.025207    0.000000    0.000000    0.000000
     2        -0.403891745168097    3.728e-02    0.028038    0.000000    0.000000    0.000000
     3        -0.409071748619702    2.607e-02    0.039731    0.000000    0.000000    0.000000
     4        -0.409102972671145    1.159e-02    0.045244    0.000000    0.000000    0.000000
     5        -0.409296397298418    5.791e-03    0.049244    0.000000    0.000000    0.000000
     6        -0.409350520130997    1.644e-03    0.049819    0.000000    0.000000    0.000000
     7        -0.409363479664444    4.837e-04    0.049874    0.000000    0.000000    0.000000
     8        -0.409365893155389    1.860e-04    0.049875    0.000000    0.000000    0.000000
     9        -0.409362920997681    8.173e-05    0.049873    0.000000    0.000000    0.000000
    10        -0.409364505482297    3.984e-05    0.049869    0.000000    0.000000    0.000000
    11        -0.409364625967170    1.555e-05    0.049871    0.000000    0.000000    0.000000
    12        -0.409365408140176    5.564e-06    0.049871    0.000000    0.000000    0.000000
    13        -0.409365511799138    1.876e-06    0.049871    0.000000    0.000000    0.000000
    14        -0.409365498124720    5.181e-07    0.049871    0.000000    0.000000    0.000000
    15        -0.409365500407534    2.418e-07    0.049871    0.000000    0.000000    0.000000
    16        -0.409365495246773    9.040e-08    0.049871    0.000000    0.000000    0.000000

    Iterations converged.

    Largest TIA Amplitudes:
              3  43         0.0601007331
              3  45         0.0282038967
              3  49         0.0227221010
              3  46         0.0160538719
              5  64         0.0140645761
              5  65        -0.0132556991
              4  64        -0.0116775741
              3  47         0.0113659424
              4  67        -0.0089354124
              5  68        -0.0088983542

    Largest Tia Amplitudes:
              3  43        -0.0805393896
              3  44        -0.0611288599
              4  65        -0.0467353484
              4  66        -0.0438339615
              3  45        -0.0413809742
              4  64        -0.0409092930
              3  47         0.0205717378
              3  48        -0.0201662483
              4  69        -0.0175121296
              4  68         0.0170873588

    Largest TIJAB Amplitudes:
      3   2  43   9        -0.0193009554
      3   2  43   5        -0.0152977915
      3   2  43   6         0.0149717668
      3   2  43  10         0.0131623205
      5   3  69  43        -0.0121058138
      4   3  35  12         0.0087442901
      5   3  66  43        -0.0084026108
      5   3  68  47        -0.0080987413
      3   2  44   9        -0.0080247429
      3   2  45   9        -0.0079563262

    Largest Tijab Amplitudes:
      4   3  66  43        -0.0237789730
      4   3  64  43        -0.0215677934
      4   3  65  43        -0.0152735427
      4   3  66  45        -0.0149624856
      3   2  43   9        -0.0142937652
      4   3  66  44        -0.0135973295
      4   3  64  45        -0.0134701304
      4   2  66   9        -0.0134491524
      4   3  65  44        -0.0118663955
      4   2  65   9        -0.0115291073

    Largest TIjAb Amplitudes:
      3   3  43  43        -0.0781264899
      3   3  43  44        -0.0484382875
      3   3  43  45        -0.0479331035

      * MP2 total energy                      = -129.698128769671825
      * CCSD total energy                     = -129.706445615199954
      * CCSD(T) total energy                     = -129.726027345976746
*** Psi4 exiting successfully. Buy a developer a beer!
