                               Psi4 1.4a3.dev88

  ==> Input File <==

--------------------------------------------------------------------------
# Any line starting with the # character is a comment line
memory 250000 mb
molecule molecule{
0 2
O          0.0000000000        0.0000000000       -0.5412437487
N          0.0000000000        0.0000000000        0.6182452136
}

set {
  reference uhf
  basis aug-cc-pV(d+d)Z
  scf_type OUT_OF_CORE
  freeze_core true
}

energy('ccsd(t)')
--------------------------------------------------------------------------

    Molecular point group: c2v

    Geometry (in Angstrom), charge = 0, multiplicity = 2:

       Center              X                  Y                   Z               Mass
    ------------   -----------------  -----------------  -----------------  -----------------
         O            0.000000000000     0.000000000000    -0.541249946785    15.994914619570
         N            0.000000000000     0.000000000000     0.618239015515    14.003074004430

  Charge       = 0
  Multiplicity = 2
  Basis Set: AUG-CC-PV(D+D)Z
    Blend: AUG-CC-PV(D+D)Z

    Orbital Energies [Eh]
    ---------------------

    Alpha Occupied:

       1A1   -20.711213     2A1   -15.749159     3A1    -1.613098
       4A1    -0.975754     1B2    -0.786848     5A1    -0.700140
       1B1    -0.642105     2B2    -0.430772

    Alpha Virtual:

       2B1     0.069631     6A1     0.099900     7A1     0.141182
       3B2     0.150036     3B1     0.157075     8A1     0.222854
       4B2     0.237885     4B1     0.255585     9A1     0.390559
      10A1     0.610372     1A2     0.625640    11A1     0.626074
       5B2     0.807997     5B1     0.819624    12A1     0.869900
      13A1     0.917918     6B2     0.998636     6B1     1.027336
       2A2     1.081792    14A1     1.082096     7B2     1.197675
       7B1     1.233268    15A1     1.273465    16A1     1.536712
       8B2     1.665878     8B1     1.697859    17A1     2.088983
       3A2     2.352299    18A1     2.352721     9B2     2.454993
       9B1     2.463942    19A1     2.793259    20A1     3.326638
       4A2     3.528822    21A1     3.529235    10B2     3.812259
      10B1     3.824727    22A1     3.994179

    Beta Occupied:

       1A1   -20.706131     2A1   -15.712693     3A1    -1.580667
       4A1    -0.892008     1B1    -0.665641     5A1    -0.652544
       1B2    -0.614357

    Beta Virtual:

       2B1     0.084970     6A1     0.100710     2B2     0.111186
       7A1     0.145752     3B1     0.177823     3B2     0.194730
       8A1     0.224497     4B1     0.251721     4B2     0.268365
       9A1     0.392116    10A1     0.637865     1A2     0.645256
      11A1     0.647328     5B1     0.822214     5B2     0.839376
      12A1     0.884094    13A1     0.929986     6B1     1.053175
       6B2     1.079904     2A2     1.085962    14A1     1.086461
       7B1     1.234992     7B2     1.263539    15A1     1.283187
      16A1     1.551018     8B1     1.679070     8B2     1.709086
      17A1     2.106454    18A1     2.436638     3A2     2.436996
       9B1     2.482680     9B2     2.514415    19A1     2.821520
      20A1     3.336840    21A1     3.538826     4A2     3.539172
      10B1     3.811548    10B2     3.848281    22A1     4.002014

    Final Occupation by Irrep:
             A1    A2    B1    B2
    DOCC [     5,    0,    1,    1 ]
    SOCC [     0,    0,    0,    1 ]

  @UHF Final Energy:  -129.26883622563355

   => Energetics <=

    Nuclear Repulsion Energy =             25.5577454905109107
    One-Electron Energy =                -227.2200326742986931
    Two-Electron Energy =                  72.3934509581542471
    Total Energy =                       -129.2688362256335495

  UHF NO Occupations:
  HONO-2 :    1 B2 1.9965452
  HONO-1 :    1 B1 1.9723390
  HONO-0 :    2 B2 1.0000000
  LUNO+0 :    2 B1 0.0276610
  LUNO+1 :    3 B2 0.0034548
  LUNO+2 :    6 A1 0.0021999
  LUNO+3 :    7 A1 0.0003027

Computation Completed

Properties will be evaluated at   0.000000,   0.000000,   0.000000 [a0]

Properties computed using the SCF density matrix

  Nuclear Dipole Moment: [e a0]
     X:     0.0000      Y:     0.0000      Z:    -0.0044

  Electronic Dipole Moment: [e a0]
     X:     0.0000      Y:     0.0000      Z:     0.1082

  Dipole Moment: [e a0]
     X:     0.0000      Y:     0.0000      Z:     0.1038     Total:     0.1038

  Dipole Moment: [D]
     X:     0.0000      Y:     0.0000      Z:     0.2638     Total:     0.2638

*** tstop() called on n412-039.vsc4.prov at Tue Jan 26 18:32:16 2021
Module time:
	user time   =      26.79 seconds =       0.45 minutes
	system time =       0.94 seconds =       0.02 minutes
	total time  =          1 seconds =       0.02 minutes
Total time:
	user time   =      26.79 seconds =       0.45 minutes
	system time =       0.94 seconds =       0.02 minutes
	total time  =          1 seconds =       0.02 minutes

*** tstart() called on n412-039.vsc4.prov
*** at Tue Jan 26 18:32:16 2021

	Wfn Parameters:
	--------------------
	Wavefunction         = CCSD_T
	Number of irreps     = 4
	Number of MOs        = 46
	Number of active MOs = 44
	AO-Basis             = NONE
	Semicanonical        = false
	Reference            = UHF
	Print Level          = 1

	IRREP	# MOs	# FZDC	# DOCC	# SOCC	# VIRT	# FZVR
	-----	-----	------	------	------	------	------
	 A1	   22	    2	    3	    0	    17	    0
	 A2	   4	    0	    0	    0	    4	    0
	 B1	   10	    0	    1	    0	    9	    0
	 B2	   10	    0	    1	    1	    8	    0
	Transforming integrals...
	IWL integrals will be deleted.
	(OO|OO)...
	Presorting SO-basis two-electron integrals.
	Sorting File: SO Ints (nn|nn) nbuckets = 1
	Constructing frozen core operators
	Starting AA/AB first half-transformation.
	Sorting AA/AB half-transformed integrals.
	Starting BB first half-transformation.
	Sorting BB half-transformed integrals.
	First half integral transformation complete.
	Starting AA second half-transformation.
	Starting AB second half-transformation.
	Starting BB second half-transformation.
	Two-electron integral transformation complete.
	(OO|OV)...
	Starting AA second half-transformation.
	Starting AB second half-transformation.
	Starting BB second half-transformation.
	Two-electron integral transformation complete.
	(OO|VV)...
	Starting AA second half-transformation.
	Starting AB second half-transformation.
	Starting BB second half-transformation.
	Two-electron integral transformation complete.
	(OV|OO)...
	Starting AA/AB first half-transformation.
	Sorting AA/AB half-transformed integrals.
	Starting BB first half-transformation.
	Sorting BB half-transformed integrals.
	First half integral transformation complete.
	Starting AA second half-transformation.
	Starting AB second half-transformation.
	Starting BB second half-transformation.
	Two-electron integral transformation complete.
	(OV|OV)...
	Starting AA second half-transformation.
	Starting AB second half-transformation.
	Starting BB second half-transformation.
	Two-electron integral transformation complete.
	(OV|VV)...
	Starting AA second half-transformation.
	Starting AB second half-transformation.
	Starting BB second half-transformation.
	Two-electron integral transformation complete.
	(VV|OO)...
	Starting AA/AB first half-transformation.
	Sorting AA/AB half-transformed integrals.
	Starting BB first half-transformation.
	Sorting BB half-transformed integrals.
	First half integral transformation complete.
	Starting AA second half-transformation.
	Starting AB second half-transformation.
	Starting BB second half-transformation.
	Two-electron integral transformation complete.
	(VV|OV)...
	Starting AA second half-transformation.
	Starting AB second half-transformation.
	Starting BB second half-transformation.
	Two-electron integral transformation complete.
	(VV|VV)...
	Starting AA second half-transformation.
	Starting AB second half-transformation.
	Starting BB second half-transformation.
	Two-electron integral transformation complete.
	Frozen core energy     =   -115.70488909708619

	Size of irrep 0 of <AB|CD> integrals:      0.042 (MW) /      0.339 (MB)
	Size of irrep 1 of <AB|CD> integrals:      0.020 (MW) /      0.157 (MB)
	Size of irrep 2 of <AB|CD> integrals:      0.034 (MW) /      0.274 (MB)
	Size of irrep 3 of <AB|CD> integrals:      0.030 (MW) /      0.237 (MB)
	Total:                                     0.126 (MW) /      1.007 (MB)

	Size of irrep 0 of <ab|cd> integrals:      0.046 (MW) /      0.366 (MB)
	Size of irrep 1 of <ab|cd> integrals:      0.022 (MW) /      0.178 (MB)
	Size of irrep 2 of <ab|cd> integrals:      0.036 (MW) /      0.286 (MB)
	Size of irrep 3 of <ab|cd> integrals:      0.036 (MW) /      0.286 (MB)
	Total:                                     0.139 (MW) /      1.116 (MB)

	Size of irrep 0 of <Ab|Cd> integrals:      0.210 (MW) /      1.678 (MB)
	Size of irrep 1 of <Ab|Cd> integrals:      0.084 (MW) /      0.668 (MB)
	Size of irrep 2 of <Ab|Cd> integrals:      0.140 (MW) /      1.119 (MB)
	Size of irrep 3 of <Ab|Cd> integrals:      0.130 (MW) /      1.043 (MB)
	Total:                                     0.563 (MW) /      4.508 (MB)

	Size of irrep 0 of <IA|BC> integrals:      0.034 (MW) /      0.274 (MB)
	Size of irrep 1 of <IA|BC> integrals:      0.011 (MW) /      0.085 (MB)
	Size of irrep 2 of <IA|BC> integrals:      0.019 (MW) /      0.154 (MB)
	Size of irrep 3 of <IA|BC> integrals:      0.021 (MW) /      0.171 (MB)
	Total:                                     0.085 (MW) /      0.683 (MB)

	Size of irrep 0 of <ia|bc> integrals:      0.032 (MW) /      0.258 (MB)
	Size of irrep 1 of <ia|bc> integrals:      0.009 (MW) /      0.072 (MB)
	Size of irrep 2 of <ia|bc> integrals:      0.018 (MW) /      0.145 (MB)
	Size of irrep 3 of <ia|bc> integrals:      0.018 (MW) /      0.145 (MB)
	Total:                                     0.077 (MW) /      0.620 (MB)

	Size of irrep 0 of <Ia|Bc> integrals:      0.036 (MW) /      0.286 (MB)
	Size of irrep 1 of <Ia|Bc> integrals:      0.011 (MW) /      0.090 (MB)
	Size of irrep 2 of <Ia|Bc> integrals:      0.019 (MW) /      0.156 (MB)
	Size of irrep 3 of <Ia|Bc> integrals:      0.023 (MW) /      0.188 (MB)
	Total:                                     0.090 (MW) /      0.719 (MB)

	Size of irrep 0 of <iA|bC> integrals:      0.031 (MW) /      0.249 (MB)
	Size of irrep 1 of <iA|bC> integrals:      0.008 (MW) /      0.067 (MB)
	Size of irrep 2 of <iA|bC> integrals:      0.018 (MW) /      0.144 (MB)
	Size of irrep 3 of <iA|bC> integrals:      0.016 (MW) /      0.130 (MB)
	Total:                                     0.074 (MW) /      0.590 (MB)

	Size of irrep 0 of tIjAb amplitudes:       0.005 (MW) /      0.044 (MB)
	Size of irrep 1 of tIjAb amplitudes:       0.001 (MW) /      0.007 (MB)
	Size of irrep 2 of tIjAb amplitudes:       0.002 (MW) /      0.018 (MB)
	Size of irrep 3 of tIjAb amplitudes:       0.003 (MW) /      0.026 (MB)
	Total:                                     0.012 (MW) /      0.095 (MB)

	Nuclear Rep. energy          =     25.55774549051091
	SCF energy                   =   -129.26883622563355
	One-electron energy          =    -68.68945011223619
	Two-electron (AA) energy     =      7.33363879468273
	Two-electron (BB) energy     =      4.96609595957875
	Two-electron (AB) energy     =     17.26802273891644
	Two-electron energy          =     29.56775749317791
	Reference energy             =   -129.26883622563355

*** tstop() called on n412-039.vsc4.prov at Tue Jan 26 18:32:18 2021
Module time:
	user time   =       0.13 seconds =       0.00 minutes
	system time =       0.25 seconds =       0.00 minutes
	total time  =          2 seconds =       0.03 minutes
Total time:
	user time   =      26.92 seconds =       0.45 minutes
	system time =       1.19 seconds =       0.02 minutes
	total time  =          3 seconds =       0.05 minutes
            **************************
            *                        *
            *        CCENERGY        *
            *                        *
            **************************

    Nuclear Rep. energy (wfn)     =   25.557745490510911
    SCF energy          (wfn)     = -129.268836225633549
    Reference energy    (file100) = -129.268836225633549

    Input parameters:
    -----------------
    Wave function   =     CCSD_T
    Reference wfn   =     UHF
    Brueckner       =     No
    Memory (Mbytes) =     250000.0
    Maxiter         =     50
    R_Convergence   =     1.0e-07
    E_Convergence   =     1.0e-06
    Restart         =     Yes
    DIIS            =     Yes
    AO Basis        =     NONE
    ABCD            =     NEW
    Cache Level     =     2
    Cache Type      =     LRU
    Print Level     =     1
    Num. of threads =     48
    # Amps to Print =     10
    Print MP2 Amps? =     No
    Analyze T2 Amps =     No
    Print Pair Ener =     No
    Local CC        =     No
    SCS-MP2         =     False
    SCSN-MP2        =     False
    SCS-CCSD        =     False

MP2 correlation energy -0.3305708124705899
                Solving CC Amplitude Equations
                ------------------------------
  Iter             Energy              RMS        T1Diag      D1Diag    New D1Diag    D2Diag
  ----     ---------------------    ---------   ----------  ----------  ----------   --------
     0        -0.330570812470590    0.000e+00    0.000000    0.000000    0.000000    0.000000
     1        -0.323448112602610    9.897e-02    0.024833    0.000000    0.000000    0.000000
     2        -0.337301116703809    3.622e-02    0.028367    0.000000    0.000000    0.000000
     3        -0.342379600274755    2.515e-02    0.039594    0.000000    0.000000    0.000000
     4        -0.342514616988902    1.076e-02    0.044799    0.000000    0.000000    0.000000
     5        -0.342675610685402    5.089e-03    0.048032    0.000000    0.000000    0.000000
     6        -0.342704326622362    1.517e-03    0.048511    0.000000    0.000000    0.000000
     7        -0.342724542892681    4.387e-04    0.048584    0.000000    0.000000    0.000000
     8        -0.342723147251028    1.799e-04    0.048576    0.000000    0.000000    0.000000
     9        -0.342721650931874    9.112e-05    0.048575    0.000000    0.000000    0.000000
    10        -0.342723115074369    4.563e-05    0.048570    0.000000    0.000000    0.000000
    11        -0.342723317075954    1.623e-05    0.048572    0.000000    0.000000    0.000000
    12        -0.342724064319692    4.868e-06    0.048571    0.000000    0.000000    0.000000
    13        -0.342724126142476    1.650e-06    0.048572    0.000000    0.000000    0.000000
    14        -0.342724133863660    5.004e-07    0.048572    0.000000    0.000000    0.000000
    15        -0.342724139440680    2.429e-07    0.048572    0.000000    0.000000    0.000000
    16        -0.342724144547588    1.036e-07    0.048572    0.000000    0.000000    0.000000
    17        -0.342724146499483    4.694e-08    0.048572    0.000000    0.000000    0.000000

    Iterations converged.

    Largest TIA Amplitudes:
              3  21         0.0545883926
              3  23         0.0259583870
              3  27         0.0204661192
              5  30         0.0194529623
              5  31        -0.0189738550
              4  30        -0.0156756998
              3  25         0.0147768869
              3  24         0.0127106090
              4  33        -0.0112888394
              2   0         0.0092934896

    Largest Tia Amplitudes:
              3  21        -0.0870485180
              3  22        -0.0533267174
              4  30        -0.0512800436
              4  31        -0.0439763996
              3  23        -0.0357014596
              4  32        -0.0351370974
              3  25         0.0185175036
              4  34         0.0160855071
              1   4        -0.0140737017
              3  26        -0.0139021147

    Largest TIJAB Amplitudes:
      3   2  21   4        -0.0262698928
      3   2  21   9         0.0148919091
      5   2  32   4        -0.0120643342
      3   2  23   4        -0.0114037334
      5   3  35  21        -0.0113899283
      5   3  33  21        -0.0113246934
      5   3  32  21        -0.0111710567
      4   3  17   5        -0.0097898862
      3   2  21   6        -0.0096358727
      3   1  21   3        -0.0095993314

    Largest Tijab Amplitudes:
      4   3  30  21        -0.0278447318
      4   3  32  21        -0.0232359778
      3   2  21   4         0.0206275220
      4   3  31  21        -0.0161253920
      4   3  30  23        -0.0154789396
      4   2  30   4         0.0150725923
      4   3  32  23        -0.0134450966
      3   2  21   9        -0.0128553016
      4   2  32   4         0.0122481622
      4   2  30   5         0.0121919225

    Largest TIjAb Amplitudes:
      3   3  21  21        -0.0893858443
      3   4  21  30        -0.0500039081
      3   3  21  23        -0.0481871681
      3   3  21  22        -0.0450235028
      3   4  21  32        -0.0413892308
      3   3  23  21        -0.0398542884
      3   4  21  31        -0.0325220453
      1   1  21  21        -0.0297626536
      2   2  21  21         0.0284995070
      2   2   4   4         0.0245025418

    SCF energy       (wfn)                    = -129.268836225633549
    Reference energy (file100)                = -129.268836225633549

    Opposite-spin MP2 correlation energy      =   -0.240091229436211
    Same-spin MP2 correlation energy          =   -0.090479583034379
    Singles MP2 correlation energy            =   -0.000000000000000
    MP2 correlation energy                    =   -0.330570812470590
      * MP2 total energy                      = -129.599407038104147

    Opposite-spin CCSD correlation energy     =   -0.265599879286687
    Same-spin CCSD correlation energy         =   -0.077124267212796
    Singles CCSD correlation energy           =    0.000000000000000
    CCSD correlation energy                   =   -0.342724146499483
      * CCSD total energy                     = -129.611560372133027

            **************************
            *                        *
            *        CCTRIPLES       *
            *                        *
            **************************

      * CCSD(T) total energy                     = -129.624995361543569
*** Psi4 exiting successfully. Buy a developer a beer!
