                               Psi4 1.4a3.dev88

  ==> Input File <==

--------------------------------------------------------------------------
# Any line starting with the # character is a comment line
memory 250000 mb
molecule molecule{
0 1
Cl         0.0000000000        0.0000000000        0.9943524372
Cl         0.0000000000        0.0000000000       -0.9943524372
}

set {
  reference rhf
  basis aug-cc-pv(q+d)z
  scf_type OUT_OF_CORE
  freeze_core true
}

energy('ccsd(t)')
--------------------------------------------------------------------------

    Molecular point group: d2h

    Geometry (in Angstrom), charge = 0, multiplicity = 1:

       Center              X                  Y                   Z               Mass
    ------------   -----------------  -----------------  -----------------  -----------------
         CL           0.000000000000     0.000000000000     0.994352437200    34.968852682000
         CL           0.000000000000     0.000000000000    -0.994352437200    34.968852682000

  Charge       = 0
  Multiplicity = 1
  Basis Set: AUG-CC-PV(Q+D)Z
    Blend: AUG-CC-PV(Q+D)Z

    Orbital Energies [Eh]
    ---------------------

    Doubly Occupied:

       1Ag  -104.898017     1B1u -104.898015     2Ag   -10.619906
       2B1u  -10.619738     3Ag    -8.087192     3B1u   -8.086921
       1B2u   -8.084211     1B3u   -8.084211     1B3g   -8.084204
       1B2g   -8.084204     4Ag    -1.218639     4B1u   -1.014835
       5Ag    -0.598023     2B2u   -0.570025     2B3u   -0.570025
       2B3g   -0.443844     2B2g   -0.443844

  @RHF Final Energy:  -919.00909636135123

   => Energetics <=

    Nuclear Repulsion Energy =             76.9004068186689693
    One-Electron Energy =               -1423.0073009145489777
    Two-Electron Energy =                 427.0977977345288537
    Total Energy =                       -919.0090963613512258

  Dipole Moment: [D]
     X:     0.0000      Y:     0.0000      Z:     0.0000     Total:     0.0000

      * MP2 total energy                      = -919.431712611849321
      * CCSD total energy                     = -919.461168323882703
      * CCSD(T) total energy                  = -919.483312042955617
*** Psi4 exiting successfully. Buy a developer a beer!
