                               Psi4 1.4a3.dev88

  ==> Input File <==

--------------------------------------------------------------------------
# Any line starting with the # character is a comment line
memory 250000 mb
molecule molecule{
0 1
Cl         0.0000000000        0.0000000000        0.9943524372
Cl         0.0000000000        0.0000000000       -0.9943524372
}

set {
  reference rhf
  basis aug-cc-pV(t+d)Z
  scf_type OUT_OF_CORE
  freeze_core true
}

energy('ccsd(t)')
--------------------------------------------------------------------------

    Molecular point group: d2h

    Geometry (in Angstrom), charge = 0, multiplicity = 1:

       Center              X                  Y                   Z               Mass
    ------------   -----------------  -----------------  -----------------  -----------------
         CL           0.000000000000     0.000000000000     0.994352437200    34.968852682000
         CL           0.000000000000     0.000000000000    -0.994352437200    34.968852682000

  Charge       = 0
  Multiplicity = 1
  Basis Set: AUG-CC-PV(T+D)Z
    Blend: AUG-CC-PV(T+D)Z

    Orbital Energies [Eh]
    ---------------------

    Doubly Occupied:

       1Ag  -104.900465     1B1u -104.900463     2Ag   -10.621118
       2B1u  -10.620951     3Ag    -8.088286     3B1u   -8.088026
       1B2u   -8.085024     1B3u   -8.085024     1B3g   -8.085018
       1B2g   -8.085018     4Ag    -1.219295     4B1u   -1.015347
       5Ag    -0.598482     2B2u   -0.570295     2B3u   -0.570295
       2B3g   -0.444111     2B2g   -0.444111

  @RHF Final Energy:  -919.00235718734393

   => Energetics <=

    Nuclear Repulsion Energy =             76.9004068186689693
    One-Electron Energy =               -1422.9628669997439374
    Two-Electron Energy =                 427.0601029937311637
    Total Energy =                       -919.0023571873439323

  Dipole Moment: [D]
     X:     0.0000      Y:     0.0000      Z:     0.0000     Total:     0.0000

      * MP2 total energy                      = -919.390544374327987
      * CCSD total energy                     = -919.423204387431383
      * CCSD(T) total energy                  = -919.442726830986430
*** Psi4 exiting successfully. Buy a developer a beer!
