                               Psi4 1.2a1.dev939

  ==> Input File <==

--------------------------------------------------------------------------
# Any line starting with the # character is a comment line

memory 32000 mb

molecule molecule {
-1 1
P          0.0000000000        0.0000000000        0.0604223492
H          0.0000000000        1.0258075143       -0.9283823155
H          0.0000000000       -1.0258075143       -0.9283823155
}

set {
  reference rhf

  basis aug-cc-pv(5+d)z
  scf_type OUT_OF_CORE
  freeze_core true
}

energy('ccsd')
--------------------------------------------------------------------------

    Molecular point group: c2v

    Geometry (in Angstrom), charge = -1, multiplicity = 1:

       Center              X                  Y                   Z               Mass
    ------------   -----------------  -----------------  -----------------  -----------------
           P          0.000000000000     0.000000000000     0.060415875383    30.973761629000
           H         -0.000000000000     1.025807514300    -0.928388789317     1.007825032070
           H          0.000000000000    -1.025807514300    -0.928388789317     1.007825032070

  Charge       = -1
  Multiplicity = 1
  Basis Set: AUG-CC-PV(5+D)Z
    Blend: AUG-CC-PV(5+D)Z

    Orbital Energies (a.u.)
    -----------------------

    Doubly Occupied:

       1A1   -79.676276     2A1    -7.218010     1B2    -5.112096
       3A1    -5.111484     1B1    -5.110981     4A1    -0.560964
       2B2    -0.270614     5A1    -0.165502     2B1    -0.045284

  @RHF Final Energy:  -341.89463077278822

   => Energetics <=

    Nuclear Repulsion Energy =             11.4001765446449621
    One-Electron Energy =                -500.0471910603803281
    Two-Electron Energy =                 146.7523837429471314
    PCM Polarization Energy =               0.0000000000000000
    Total Energy =                       -341.8946307727882186
      * MP2 total energy                      = -342.092002022661063
      * CCSD total energy                     = -342.109924418634762
*** Psi4 exiting successfully. Buy a developer a beer!
