                               Psi4 1.2a1.dev939

  ==> Input File <==

--------------------------------------------------------------------------
# Any line starting with the # character is a comment line

memory 32000 mb

molecule molecule {
-1 1
P          0.0000000000        0.0000000000        0.0604223492
H          0.0000000000        1.0258075143       -0.9283823155
H          0.0000000000       -1.0258075143       -0.9283823155
}

set {
  reference rhf
  basis aug-cc-pv(T+d)z
  scf_type OUT_OF_CORE
  freeze_core true
}

energy('ccsd')
--------------------------------------------------------------------------

    Molecular point group: c2v

    Geometry (in Angstrom), charge = -1, multiplicity = 1:

       Center              X                  Y                   Z               Mass
    ------------   -----------------  -----------------  -----------------  -----------------
           P          0.000000000000     0.000000000000     0.060415875383    30.973761629000
           H         -0.000000000000     1.025807514300    -0.928388789317     1.007825032070
           H          0.000000000000    -1.025807514300    -0.928388789317     1.007825032070

  Charge       = -1
  Multiplicity = 1
  Basis Set: AUG-CC-PV(T+D)Z
    Blend: AUG-CC-PV(T+D)Z

    Orbital Energies (a.u.)
    -----------------------

    Doubly Occupied:

       1A1   -79.676166     2A1    -7.217839     1B2    -5.111783
       3A1    -5.111072     1B1    -5.110373     4A1    -0.560576
       2B2    -0.269995     5A1    -0.164872     2B1    -0.044967

  @RHF Final Energy:  -341.89105470439853

   => Energetics <=

    Nuclear Repulsion Energy =             11.4001765446449621
    One-Electron Energy =                -500.0471789270870886
    Two-Electron Energy =                 146.7559476780435830
    Total Energy =                       -341.8910547043985275
      * MP2 total energy                      = -342.072864498148306
      * CCSD total energy                     = -342.095790560033834
*** Psi4 exiting successfully. Buy a developer a beer!
