                               Psi4 1.2a1.dev939

  ==> Input File <==

--------------------------------------------------------------------------
# Any line starting with the # character is a comment line
memory 250000 mb
molecule molecule{
0 3
Si         0.0000000000        0.0000000000        0.0506089132
H          0.0000000000       -1.2654869206       -0.7050899024
H          0.0000000000        1.2654869206       -0.7050899024
}

set {
  reference uhf
  basis aug-cc-pv(6+d)z
  scf_type OUT_OF_CORE
  freeze_core true
}

energy('ccsd')
--------------------------------------------------------------------------

    Molecular point group: c2v

    Geometry (in Angstrom), charge = 0, multiplicity = 3:

       Center              X                  Y                   Z               Mass
    ------------   -----------------  -----------------  -----------------  -----------------
          SI         -0.000000000000     0.000000000000     0.050786712546    27.976926532460
           H          0.000000000000    -1.265486920600    -0.704912103054     1.007825032070
           H         -0.000000000000     1.265486920600    -0.704912103054     1.007825032070

  Charge       = 0
  Multiplicity = 3
  Basis Set: AUG-CC-PV(6+D)Z
    Blend: AUG-CC-PV(6+D)Z

    Orbital Energies (a.u.)
    -----------------------

    Alpha Occupied:

       1A1   -68.798184     2A1    -6.147166     1B1    -4.259754
       3A1    -4.255743     1B2    -4.247023     4A1    -0.729119
       2B2    -0.512536     5A1    -0.391111     2B1    -0.306823

    Alpha Virtual:

       6A1     0.021087     3B2     0.034392     7A1     0.035766
       3B1     0.040644     4B2     0.050704     8A1     0.083481
       1A2     0.092792     9A1     0.093954    10A1     0.097419
       4B1     0.098554     5B2     0.111360    11A1     0.131260
       6B2     0.137278    12A1     0.167613     5B1     0.171300
       7B2     0.181673     2A2     0.197179     8B2     0.197498
      13A1     0.198769     6B1     0.206630    14A1     0.240241
       9B2     0.252813     3A2     0.253558    15A1     0.257521
       7B1     0.259804     8B1     0.263319    16A1     0.275982
      10B2     0.287467    17A1     0.296595    11B2     0.336643
      18A1     0.337427    19A1     0.353352     9B1     0.354392
      12B2     0.367810     4A2     0.371725    20A1     0.435770
      13B2     0.456352    14B2     0.472965     5A2     0.477278
      10B1     0.493243    21A1     0.497101     6A2     0.505299
      11B1     0.536921    22A1     0.541953    15B2     0.554111
      12B1     0.555925    23A1     0.563829    13B1     0.580818
      16B2     0.584311    24A1     0.584769     7A2     0.596286
      17B2     0.634443    25A1     0.637266    14B1     0.642773
      26A1     0.643139     8A2     0.661527    18B2     0.665419
      27A1     0.670600    15B1     0.677511    28A1     0.687456
       9A2     0.700091    19B2     0.701109    20B2     0.712105
      29A1     0.716649    16B1     0.747818    30A1     0.753493
      17B1     0.783563    10A2     0.791213    21B2     0.792895
      31A1     0.806685    22B2     0.873895    32A1     0.911590
      23B2     1.002269    18B1     1.022316    11A2     1.039868
      24B2     1.051556    33A1     1.058881    12A2     1.113216
      34A1     1.148505    35A1     1.165453    25B2     1.194660
      26B2     1.210173    19B1     1.211541    27B2     1.221774
      20B1     1.222781    36A1     1.228281    13A2     1.236952
      37A1     1.242759    14A2     1.242932    21B1     1.247265
      38A1     1.269595    28B2     1.304528    39A1     1.363646
      22B1     1.367848    29B2     1.382376    40A1     1.405073
      15A2     1.417072    23B1     1.421611    41A1     1.440638
      24B1     1.440760    30B2     1.454450    31B2     1.477494
      42A1     1.483764    16A2     1.490383    25B1     1.494262
      43A1     1.497451    44A1     1.521874    26B1     1.523094
      17A2     1.523927    32B2     1.545129    18A2     1.567710
      45A1     1.572145    33B2     1.575515    27B1     1.581284
      19A2     1.585114    28B1     1.600046    46A1     1.610896
      34B2     1.634116    47A1     1.639662    35B2     1.644026
      29B1     1.694455    48A1     1.720692    36B2     1.821123
      37B2     1.876707    20A2     1.879627    49A1     1.891275
      30B1     1.952617    38B2     2.025311    50A1     2.037469
      39B2     2.128790    31B1     2.195324    21A2     2.211461
      22A2     2.233414    51A1     2.238508    52A1     2.269931
      40B2     2.288042    32B1     2.292578    53A1     2.309246
      41B2     2.351427    54A1     2.408989    23A2     2.429256
      55A1     2.456514    33B1     2.460072    42B2     2.485937
      24A2     2.609496    56A1     2.611282    43B2     2.615375
      25A2     2.639799    34B1     2.642859    57A1     2.646691
      35B1     2.662576    44B2     2.663508    26A2     2.704876
      58A1     2.708058    59A1     2.723474    36B1     2.738849
      27A2     2.760166    45B2     2.777931    46B2     2.803868
      47B2     2.834326    37B1     2.839676    60A1     2.862553
      61A1     2.890760    38B1     2.909055    28A2     2.909754
      39B1     2.919364    62A1     2.923088    48B2     2.925383
      63A1     2.940434    29A2     2.960899    49B2     3.018257
      50B2     3.039885    64A1     3.041926    40B1     3.043123
      41B1     3.057248    30A2     3.058207    65A1     3.068315
      51B2     3.107177    66A1     3.126323    52B2     3.143436
      31A2     3.149928    42B1     3.162200    67A1     3.194574
      53B2     3.195654    43B1     3.198765    32A2     3.203269
      68A1     3.246365    44B1     3.285283    45B1     3.309648
      33A2     3.318140    69A1     3.333943    54B2     3.346188
      55B2     3.391180    70A1     3.419599    56B2     3.448912
      71A1     3.513039    46B1     3.529557    34A2     3.574341
      72A1     3.586004    35A2     3.608446    57B2     3.616291
      73A1     3.744693    47B1     3.755682    58B2     3.794856
      74A1     3.868633    48B1     3.978003    75A1     3.991153
      36A2     3.991751    59B2     4.008465    49B1     4.152380
      76A1     4.206640    60B2     4.344485    50B1     4.356891
      61B2     4.367148    77A1     4.410781    37A2     4.472295
      38A2     4.503577    51B1     4.539209    78A1     4.575780
      62B2     4.584842    52B1     4.619160    63B2     4.652527
      79A1     4.656537    64B2     4.677137    39A2     4.685470
      80A1     4.757392    81A1     4.892003    65B2     4.955535
      40A2     4.979967    66B2     5.012981    82A1     5.043870
      53B1     5.058365    41A2     5.060072    67B2     5.173199
      54B1     5.185521    68B2     5.197640    42A2     5.206512
      83A1     5.219865    43A2     5.239849    84A1     5.300370
      44A2     5.328837    69B2     5.349845    85A1     5.372392
      70B2     5.390840    55B1     5.399009    86A1     5.426415
      45A2     5.437967    71B2     5.449658    87A1     5.469802
      56B1     5.487667    88A1     5.497064    57B1     5.534234
      58B1     5.652029    72B2     5.664358    46A2     5.670209
      59B1     5.728662    73B2     5.825096    89A1     5.840670
      90A1     5.946400    60B1     5.953047    47A2     5.988059
      91A1     6.011135    61B1     6.056434    92A1     6.066652
      62B1     6.102067    93A1     6.111049    74B2     6.112307
      48A2     6.137655    75B2     6.199306    49A2     6.245192
      76B2     6.248786    94A1     6.255250    63B1     6.278825
      50A2     6.289615    95A1     6.310760    77B2     6.324477
      64B1     6.381360    96A1     6.393446    97A1     6.407787
      78B2     6.459706    79B2     6.490237    98A1     6.533435
      51A2     6.539382    65B1     6.568366    66B1     6.607849
      99A1     6.659519    80B2     6.668791    52A2     6.683825
      67B1     6.706753    53A2     6.715850    68B1     6.742232
      54A2     6.769371   100A1     6.794489    81B2     6.795947
      82B2     6.842470   101A1     6.923691    83B2     6.954453
     102A1     7.033112    69B1     7.116451   103A1     7.157609
      84B2     7.171047   104A1     7.313621    55A2     7.343492
      70B1     7.354615    85B2     7.503787    86B2     7.580220
      56A2     7.582296    71B1     7.609170   105A1     7.619407
     106A1     7.908288    72B1     7.988335    73B1     8.114102
      87B2     8.282207   107A1     8.282288    88B2     8.323681
     108A1     8.360775    89B2     8.509028    57A2     8.535814
      58A2     8.598574   109A1     8.867575    90B2     8.870511
      59A2     8.965007    91B2     9.137420   110A1     9.167609
     111A1     9.315270    74B1     9.430554    60A2     9.529017
      75B1     9.537998    92B2     9.660380   112A1     9.728269
      93B2     9.849933    76B1     9.897827   113A1     9.979521
      61A2     9.980765    94B2    10.111321    95B2    10.135556
      77B1    10.166712   114A1    10.261855    62A2    10.295331
     115A1    10.390717   116A1    10.843371    78B1    10.875406
      79B1    10.895458    63A2    10.902773    96B2    10.935634
      64A2    10.955792   117A1    10.992506    97B2    11.216827
     118A1    11.291151    98B2    11.319592    80B1    11.418301
      65A2    11.668287    99B2    11.747100   119A1    11.917695
     100B2    12.151105   120A1    12.394271    66A2    13.879164
      81B1    13.930822   121A1    14.002806   101B2    14.036055
     102B2    15.026591   122A1    15.078802    67A2    17.551479
     103B2    17.553113    82B1    17.564206   123A1    17.565435
     104B2    17.665738    68A2    17.685214    83B1    17.727206
     124A1    17.748611    69A2    17.759484   125A1    17.763991
     105B2    17.767337    84B1    17.782163    70A2    17.816605
     106B2    17.877257   126A1    17.895776    85B1    17.928459
      86B1    18.059496   127A1    18.074565   107B2    18.087691
      71A2    18.105867   108B2    18.140766   128A1    18.231709
     129A1    19.185978    87B1    19.187407    72A2    19.526141
     130A1    19.838204    73A2    20.366639   109B2    20.371319
      88B1    20.378472   131A1    20.389207   110B2    20.416333
      89B1    20.603451   132A1    20.674126   111B2    20.681720
      90B1    20.742446    74A2    20.764376    75A2    21.028540
     133A1    21.051348   112B2    21.122623   134A1    21.152131
      91B1    21.190038   113B2    21.495813   135A1    21.592016
      76A2    21.619579   114B2    21.682242    92B1    21.782207
     136A1    22.131384   115B2    22.285417    77A2    23.110435
      93B1    23.140840   137A1    23.145195   116B2    23.198456
     138A1    23.624177    94B1    24.000283   117B2    24.099233
     139A1    24.127780    78A2    24.138366    95B1    24.227698
     118B2    24.255558    79A2    24.297995   119B2    24.339231
     140A1    24.378974   141A1    24.520605   120B2    24.667502
      96B1    24.686128    80A2    24.695722   142A1    24.709364
      97B1    24.717114    81A2    24.733651   143A1    24.772535
     121B2    24.802723   122B2    24.895994   144A1    25.646945
     123B2    26.768632    82A2    35.144341    98B1    35.182710
     124B2    35.256712   145A1    35.258840   125B2    36.120767
     146A1    36.136368   147A1   184.262340

    Beta Occupied:

       1A1   -68.785611     2A1    -6.129909     1B2    -4.239444
       3A1    -4.231682     1B1    -4.228503     4A1    -0.631319
       2B2    -0.489787

    Beta Virtual:

       5A1     0.011373     6A1     0.023775     2B1     0.028822
       3B2     0.034831     7A1     0.048672     4B2     0.051442
       3B1     0.076166     8A1     0.088113     1A2     0.096758
       9A1     0.100188     4B1     0.107322    10A1     0.108664
       5B2     0.124010     6B2     0.139506    11A1     0.156014
      12A1     0.178186     7B2     0.194077     5B1     0.197673
       8B2     0.200406     2A2     0.206198    13A1     0.206506
       6B1     0.229693    14A1     0.256361     7B1     0.264223
       3A2     0.269859     9B2     0.273778    15A1     0.286112
      16A1     0.288661    10B2     0.295921     8B1     0.300792
      17A1     0.312232    11B2     0.339682    18A1     0.361368
      19A1     0.377091    12B2     0.377205     9B1     0.383438
       4A2     0.392898    20A1     0.451486    13B2     0.464209
      14B2     0.478316     5A2     0.479420    21A1     0.500486
      10B1     0.500935     6A2     0.510624    11B1     0.540739
      22A1     0.545600    15B2     0.559345    23A1     0.572076
      12B1     0.581503    13B1     0.594873    24A1     0.596299
      16B2     0.598153     7A2     0.612019    17B2     0.641636
      25A1     0.650095    26A1     0.656006    14B1     0.662531
       8A2     0.672532    18B2     0.674122    27A1     0.687679
      19B2     0.707926     9A2     0.713753    20B2     0.718560
      28A1     0.726161    15B1     0.732471    29A1     0.738080
      16B1     0.768926    30A1     0.786548    21B2     0.804231
      17B1     0.804992    10A2     0.806124    31A1     0.818920
      22B2     0.885873    32A1     0.927910    23B2     1.009696
      18B1     1.034113    11A2     1.052410    33A1     1.065483
      24B2     1.066155    12A2     1.117954    34A1     1.156498
      35A1     1.173467    25B2     1.198872    19B1     1.216084
      26B2     1.217146    27B2     1.227044    20B1     1.231742
      36A1     1.234392    13A2     1.241502    37A1     1.253970
      14A2     1.255485    21B1     1.257360    38A1     1.291130
      28B2     1.316286    39A1     1.378500    22B1     1.381502
      29B2     1.387269    40A1     1.417919    15A2     1.432612
      23B1     1.438910    24B1     1.452480    41A1     1.454737
      30B2     1.467917    31B2     1.489676    42A1     1.493752
      16A2     1.500739    25B1     1.505933    43A1     1.519335
      44A1     1.536646    17A2     1.538766    26B1     1.551675
      32B2     1.559274    18A2     1.577272    33B2     1.586185
      45A1     1.587626    19A2     1.602318    27B1     1.614632
      46A1     1.635468    34B2     1.638418    28B1     1.642672
      35B2     1.650344    47A1     1.652904    29B1     1.699982
      48A1     1.740489    36B2     1.838674    37B2     1.888569
      20A2     1.890006    49A1     1.897286    30B1     1.967314
      38B2     2.029664    50A1     2.045744    39B2     2.135937
      31B1     2.202905    21A2     2.217732    22A2     2.241368
      51A1     2.250603    52A1     2.286817    40B2     2.297873
      32B1     2.302882    53A1     2.315890    41B2     2.355180
      54A1     2.417475    23A2     2.431698    55A1     2.462396
      33B1     2.464342    42B2     2.490150    24A2     2.613533
      56A1     2.614594    43B2     2.617514    25A2     2.642343
      34B1     2.647088    57A1     2.654341    44B2     2.666813
      35B1     2.669300    58A1     2.712961    26A2     2.722555
      59A1     2.733004    36B1     2.757151    27A2     2.764086
      45B2     2.786168    46B2     2.815430    47B2     2.844318
      37B1     2.852024    60A1     2.872960    61A1     2.900409
      28A2     2.920772    38B1     2.922651    48B2     2.938187
      39B1     2.940939    62A1     2.944209    63A1     2.961332
      29A2     2.975951    49B2     3.026038    50B2     3.049570
      64A1     3.062050    40B1     3.063726    41B1     3.072466
      30A2     3.074358    65A1     3.081666    51B2     3.119859
      66A1     3.140745    52B2     3.154028    31A2     3.165903
      42B1     3.175272    67A1     3.204750    53B2     3.207538
      43B1     3.209437    32A2     3.217419    68A1     3.267271
      44B1     3.308029    45B1     3.326588    33A2     3.330036
      69A1     3.349428    54B2     3.354565    55B2     3.400897
      70A1     3.429381    56B2     3.460694    71A1     3.522619
      46B1     3.542975    34A2     3.586049    72A1     3.596727
      35A2     3.617794    57B2     3.627246    73A1     3.760009
      47B1     3.764520    58B2     3.806905    74A1     3.877027
      48B1     3.988667    75A1     3.996658    36A2     4.000295
      59B2     4.015746    49B1     4.158745    76A1     4.215272
      60B2     4.348908    50B1     4.373088    61B2     4.373455
      77A1     4.416978    37A2     4.475904    38A2     4.507289
      51B1     4.543003    78A1     4.579894    62B2     4.588262
      52B1     4.622276    63B2     4.655543    79A1     4.662926
      64B2     4.680963    39A2     4.689839    80A1     4.765037
      81A1     4.895743    65B2     4.960937    40A2     4.989100
      66B2     5.018717    82A1     5.051330    53B1     5.064365
      41A2     5.065793    67B2     5.180766    54B1     5.189342
      68B2     5.204635    42A2     5.215394    83A1     5.227444
      43A2     5.243654    84A1     5.305131    44A2     5.332744
      69B2     5.353467    85A1     5.380508    70B2     5.393288
      55B1     5.405150    86A1     5.430744    45A2     5.440427
      71B2     5.452631    87A1     5.473398    56B1     5.496725
      88A1     5.500858    57B1     5.543817    58B1     5.661428
      72B2     5.667877    46A2     5.674241    59B1     5.737565
      73B2     5.830235    89A1     5.858144    90A1     5.952884
      60B1     5.966456    47A2     5.999476    91A1     6.020798
      61B1     6.072410    92A1     6.082727    62B1     6.114990
      93A1     6.123135    74B2     6.124147    48A2     6.149017
      75B2     6.209389    49A2     6.257694    76B2     6.259643
      94A1     6.263521    63B1     6.291512    50A2     6.299883
      95A1     6.321427    77B2     6.336781    64B1     6.397945
      96A1     6.401978    97A1     6.425639    78B2     6.468742
      79B2     6.500131    98A1     6.540625    51A2     6.550824
      65B1     6.578091    66B1     6.618336    99A1     6.669130
      80B2     6.676679    52A2     6.691606    67B1     6.715472
      53A2     6.724866    68B1     6.753802    54A2     6.781806
      81B2     6.803943   100A1     6.804016    82B2     6.849023
     101A1     6.931859    83B2     6.961721   102A1     7.039830
      69B1     7.127144   103A1     7.166125    84B2     7.177122
     104A1     7.323281    55A2     7.351161    70B1     7.362548
      85B2     7.509458    86B2     7.582724    56A2     7.584847
      71B1     7.611810   105A1     7.622038   106A1     7.915266
      72B1     7.994322    73B1     8.119947    87B2     8.284947
     107A1     8.288982    88B2     8.327544   108A1     8.365300
      89B2     8.513068    57A2     8.541860    58A2     8.602960
     109A1     8.870629    90B2     8.875491    59A2     8.968579
      91B2     9.141171   110A1     9.173509   111A1     9.318447
      74B1     9.434091    60A2     9.532182    75B1     9.541075
      92B2     9.662861   112A1     9.731010    93B2     9.852052
      76B1     9.900212   113A1     9.982941    61A2     9.983493
      94B2    10.113538    95B2    10.138230    77B1    10.169468
     114A1    10.263695    62A2    10.297143   115A1    10.395195
     116A1    10.845394    78B1    10.877551    79B1    10.897614
      63A2    10.904709    96B2    10.937554    64A2    10.958168
     117A1    10.994423    97B2    11.218793   118A1    11.294152
      98B2    11.321037    80B1    11.422059    65A2    11.671563
      99B2    11.749761   119A1    11.919957   100B2    12.153364
     120A1    12.399898    66A2    13.881612    81B1    13.933273
     121A1    14.004888   101B2    14.038139   102B2    15.028851
     122A1    15.081048    67A2    17.552616   103B2    17.554249
      82B1    17.565267   123A1    17.566496   104B2    17.666727
      68A2    17.686228    83B1    17.728110   124A1    17.749699
      69A2    17.760641   125A1    17.765052   105B2    17.768194
      84B1    17.783268    70A2    17.817467   106B2    17.878511
     126A1    17.896739    85B1    17.929516    86B1    18.060920
     127A1    18.075661   107B2    18.088848    71A2    18.107075
     108B2    18.141652   128A1    18.232740   129A1    19.200757
      87B1    19.202094    72A2    19.536042   130A1    19.844690
      73A2    20.367793   109B2    20.372619    88B1    20.379618
     131A1    20.390348   110B2    20.422247    89B1    20.604721
     132A1    20.675372   111B2    20.682861    90B1    20.754872
      74A2    20.765630    75A2    21.029636   133A1    21.055693
     112B2    21.123861   134A1    21.153385    91B1    21.191312
     113B2    21.498351   135A1    21.593484    76A2    21.621164
     114B2    21.683362    92B1    21.786549   136A1    22.133891
     115B2    22.287557    77A2    23.111974    93B1    23.142405
     137A1    23.146807   116B2    23.199945   138A1    23.629818
      94B1    24.001546   117B2    24.100504   139A1    24.129173
      78A2    24.139920    95B1    24.229872   118B2    24.256961
      79A2    24.299283   119B2    24.341253   140A1    24.380778
     141A1    24.521854   120B2    24.668728    96B1    24.687487
      80A2    24.696892   142A1    24.710494    97B1    24.718294
      81A2    24.734870   143A1    24.773758   121B2    24.803948
     122B2    24.897103   144A1    25.650003   123B2    26.771419
      82A2    35.145748    98B1    35.184117   124B2    35.258031
     145A1    35.260153   125B2    36.122093   146A1    36.137693
     147A1   184.269030

    Final Occupation by Irrep:
             A1    A2    B1    B2
    DOCC [     4,    0,    1,    2 ]
    SOCC [     1,    0,    1,    0 ]

  Energy converged.

  @UHF Final Energy:  -290.02914893709425

   => Energetics <=

    Nuclear Repulsion Energy =             10.2616130010100033
    One-Electron Energy =                -422.1978083338772194
    Two-Electron Energy =                 121.9070463957729658
    Total Energy =                       -290.0291489370942486

  UHF NO Occupations:
  HONO-2 :    4 A1 1.9970103
  HONO-1 :    2 B1 1.0000000
  HONO-0 :    5 A1 1.0000000
  LUNO+0 :    6 A1 0.0029897
  LUNO+1 :    3 B2 0.0003427
  LUNO+2 :    7 A1 0.0000064
  LUNO+3 :    3 B1 0.0000058

Properties will be evaluated at   0.000000,   0.000000,   0.000000 Bohr

Properties computed using the SCF density matrix

  Nuclear Dipole Moment: (a.u.)
     X:     0.0000      Y:     0.0000      Z:    -1.3206

  Electronic Dipole Moment: (a.u.)
     X:     0.0000      Y:     0.0000      Z:     1.3446

  Dipole Moment: (a.u.)
     X:     0.0000      Y:     0.0000      Z:     0.0240     Total:     0.0240

  Dipole Moment: (Debye)
     X:     0.0000      Y:     0.0000      Z:     0.0611     Total:     0.0611

*** tstop() called on n412-020.vsc4.prov at Fri Oct 30 12:24:32 2020
Module time:
	user time   =    1687.12 seconds =      28.12 minutes
	system time =     185.58 seconds =       3.09 minutes
	total time  =       2233 seconds =      37.22 minutes
Total time:
	user time   =    1687.12 seconds =      28.12 minutes
	system time =     185.58 seconds =       3.09 minutes
	total time  =       2233 seconds =      37.22 minutes

*** tstart() called on n412-020.vsc4.prov
*** at Fri Oct 30 12:24:32 2020

	Wfn Parameters:
	--------------------
	Wavefunction         = CCSD
	Number of irreps     = 4
	Number of MOs        = 452
	Number of active MOs = 447
	AO-Basis             = NONE
	Semicanonical        = false
	Reference            = UHF
	Print Level          = 1

	IRREP	# MOs	# FZDC	# DOCC	# SOCC	# VIRT	# FZVR
	-----	-----	------	------	------	------	------
	 A1	   147	    3	    1	    1	    142	    0
	 A2	   82	    0	    0	    0	    82	    0
	 B1	   98	    1	    0	    1	    96	    0
	 B2	   125	    1	    1	    0	    123	    0
	Transforming integrals...
	IWL integrals will be deleted.
	(OO|OO)...
	Presorting SO-basis two-electron integrals.
	Sorting File: SO Ints (nn|nn) nbuckets = 1
	Transforming the one-electron integrals and constructing Fock matrices

      * MP2 total energy                      = -290.128977736195736
      * CCSD total energy                     = -290.147948424400511
*** Psi4 exiting successfully. Buy a developer a beer!
