                               Psi4 1.2a1.dev938

  ==> Input File <==

--------------------------------------------------------------------------
# Any line starting with the # character is a comment line
memory 250000 mb
molecule molecule{
0 2
S          0.0000000000        0.0000000000       -0.0407414360
H          0.0000000000        0.0000000000        1.2958811416
}

set {
  reference uhf
  basis aug-cc-pv(d+d)z
  scf_type OUT_OF_CORE
  freeze_core true
}

energy('ccsd')
--------------------------------------------------------------------------

    Molecular point group: c2v

    Geometry (in Angstrom), charge = 0, multiplicity = 2:

       Center              X                  Y                   Z               Mass
    ------------   -----------------  -----------------  -----------------  -----------------
           S          0.000000000000     0.000000000000    -0.040845540898    31.972070999000
           H          0.000000000000     0.000000000000     1.295777036702     1.007825032070

  Charge       = 0
  Multiplicity = 2
  Basis Set: AUG-CC-PV(D+D)Z
    Blend: AUG-CC-PV(D+D)Z

    Orbital Energies (a.u.)
    -----------------------

    Alpha Occupied:

       1A1   -91.993527     2A1    -8.994299     1B2    -6.690084
       3A1    -6.672284     1B1    -6.669223     4A1    -0.991081
       5A1    -0.554444     2B2    -0.470099     2B1    -0.402449

    Alpha Virtual:

       6A1     0.037545     7A1     0.108528     3B2     0.112413
       3B1     0.123581     8A1     0.177880     9A1     0.189089
       4B2     0.288750     4B1     0.308689    10A1     0.352500
       1A2     0.352657    11A1     0.440747     5B2     0.514136
       5B1     0.533315    12A1     0.553525     6B2     0.790855
      13A1     0.822058     6B1     0.832934    14A1     0.865391
       7B2     1.038607     2A2     1.040375    15A1     1.040430
       7B1     1.073479    16A1     1.198936    17A1     1.539905
       8B2     1.837550     8B1     1.850785    18A1     2.353771
      19A1     5.018692     3A2     5.020242     9B2     5.057311
       9B1     5.081920    20A1     5.151197

    Beta Occupied:

       1A1   -91.984511     2A1    -8.984373     3A1    -6.667283
       1B1    -6.663831     1B2    -6.650233     4A1    -0.897593
       5A1    -0.534458     2B1    -0.378576

    Beta Virtual:

       2B2    -0.005854     6A1     0.039170     7A1     0.110457
       3B1     0.125280     3B2     0.143941     8A1     0.184636
       9A1     0.202041     4B1     0.310208     4B2     0.321586
       1A2     0.397752    10A1     0.397851    11A1     0.451394
       5B1     0.535536     5B2     0.540674    12A1     0.561354
      13A1     0.827166     6B1     0.841973     6B2     0.870113
      14A1     0.877728     7B1     1.079047     7B2     1.084288
       2A2     1.093300    15A1     1.094059    16A1     1.211130
      17A1     1.556691     8B2     1.846551     8B1     1.850105
      18A1     2.358589    19A1     5.029268     3A2     5.030007
       9B2     5.067027     9B1     5.083544    20A1     5.154919

    Final Occupation by Irrep:
             A1    A2    B1    B2
    DOCC [     5,    0,    2,    1 ]
    SOCC [     0,    0,    0,    1 ]

  Energy converged.

  @UHF Final Energy:  -398.09447010779644

   => Energetics <=

    Nuclear Repulsion Energy =              6.3344997154266238
    One-Electron Energy =                -562.6595915819380025
    Two-Electron Energy =                 158.2306217587149035
    PCM Polarization Energy =               0.0000000000000000
    Total Energy =                       -398.0944701077964396

    Alert: EFP and PCM quantities not currently incorporated into SCF psivars.
  UHF NO Occupations:
  HONO-2 :    4 A1 1.9997508
  HONO-1 :    5 A1 1.9944655
  HONO-0 :    2 B2 1.0000000
  LUNO+0 :    6 A1 0.0055345
  LUNO+1 :    7 A1 0.0002492
  LUNO+2 :    3 B1 0.0002377
  LUNO+3 :    3 B2 0.0000008

Properties will be evaluated at   0.000000,   0.000000,   0.000000 Bohr

Properties computed using the SCF density matrix

  Nuclear Dipole Moment: (a.u.)
     X:     0.0000      Y:     0.0000      Z:     1.2137

  Electronic Dipole Moment: (a.u.)
     X:     0.0000      Y:     0.0000      Z:    -0.8706

  Dipole Moment: (a.u.)
     X:     0.0000      Y:     0.0000      Z:     0.3430     Total:     0.3430

  Dipole Moment: (Debye)
     X:     0.0000      Y:     0.0000      Z:     0.8719     Total:     0.8719

*** tstop() called on cqc05 at Thu Aug 20 19:55:37 2020
Module time:
	user time   =       0.51 seconds =       0.01 minutes
	system time =       0.01 seconds =       0.00 minutes
	total time  =          1 seconds =       0.02 minutes
Total time:
	user time   =       0.51 seconds =       0.01 minutes
	system time =       0.01 seconds =       0.00 minutes
	total time  =          1 seconds =       0.02 minutes

*** tstart() called on cqc05
*** at Thu Aug 20 19:55:37 2020

	Wfn Parameters:
	--------------------
	Wavefunction         = CCSD
	Number of irreps     = 4
	Number of MOs        = 41
	Number of active MOs = 36
	AO-Basis             = NONE
	Semicanonical        = false
	Reference            = UHF
	Print Level          = 1

	IRREP	# MOs	# FZDC	# DOCC	# SOCC	# VIRT	# FZVR
	-----	-----	------	------	------	------	------
	 A1	   20	    3	    2	    0	    15	    0
	 A2	   3	    0	    0	    0	    3	    0
	 B1	   9	    1	    1	    0	    7	    0
	 B2	   9	    1	    0	    1	    7	    0
	Transforming integrals...
	IWL integrals will be deleted.
	(OO|OO)...
	Presorting SO-basis two-electron integrals.
	Sorting File: SO Ints (nn|nn) nbuckets = 1
	Transforming the one-electron integrals and constructing Fock matrices
	Starting AA/AB first half-transformation.
	Sorting AA/AB half-transformed integrals.
	Starting BB first half-transformation.
	Sorting BB half-transformed integrals.
	First half integral transformation complete.
	Starting AA second half-transformation.
	Starting AB second half-transformation.
	Starting BB second half-transformation.
	Two-electron integral transformation complete.
	(OO|OV)...
	Starting AA second half-transformation.
	Starting AB second half-transformation.
	Starting BB second half-transformation.
	Two-electron integral transformation complete.
	(OO|VV)...
	Starting AA second half-transformation.
	Starting AB second half-transformation.
	Starting BB second half-transformation.
	Two-electron integral transformation complete.
	(OV|OO)...
	Starting AA/AB first half-transformation.
	Sorting AA/AB half-transformed integrals.
	Starting BB first half-transformation.
	Sorting BB half-transformed integrals.
	First half integral transformation complete.
	Starting AA second half-transformation.
	Starting AB second half-transformation.
	Starting BB second half-transformation.
	Two-electron integral transformation complete.
	(OV|OV)...
	Starting AA second half-transformation.
	Starting AB second half-transformation.
	Starting BB second half-transformation.
	Two-electron integral transformation complete.
	(OV|VV)...
	Starting AA second half-transformation.
	Starting AB second half-transformation.
	Starting BB second half-transformation.
	Two-electron integral transformation complete.
	(VV|OO)...
	Starting AA/AB first half-transformation.
	Sorting AA/AB half-transformed integrals.
	Starting BB first half-transformation.
	Sorting BB half-transformed integrals.
	First half integral transformation complete.
	Starting AA second half-transformation.
	Starting AB second half-transformation.
	Starting BB second half-transformation.
	Two-electron integral transformation complete.
	(VV|OV)...
	Starting AA second half-transformation.
	Starting AB second half-transformation.
	Starting BB second half-transformation.
	Two-electron integral transformation complete.
	(VV|VV)...
	Starting AA second half-transformation.
	Starting AB second half-transformation.
	Starting BB second half-transformation.
	Two-electron integral transformation complete.
	Frozen core energy     =   -391.50457155229969

	Size of irrep 0 of <AB|CD> integrals:      0.022 (MW) /      0.180 (MB)
	Size of irrep 1 of <AB|CD> integrals:      0.009 (MW) /      0.071 (MB)
	Size of irrep 2 of <AB|CD> integrals:      0.016 (MW) /      0.127 (MB)
	Size of irrep 3 of <AB|CD> integrals:      0.016 (MW) /      0.127 (MB)
	Total:                                     0.063 (MW) /      0.505 (MB)

	Size of irrep 0 of <ab|cd> integrals:      0.025 (MW) /      0.197 (MB)
	Size of irrep 1 of <ab|cd> integrals:      0.010 (MW) /      0.082 (MB)
	Size of irrep 2 of <ab|cd> integrals:      0.017 (MW) /      0.133 (MB)
	Size of irrep 3 of <ab|cd> integrals:      0.020 (MW) /      0.159 (MB)
	Total:                                     0.071 (MW) /      0.571 (MB)

	Size of irrep 0 of <Ab|Cd> integrals:      0.115 (MW) /      0.919 (MB)
	Size of irrep 1 of <Ab|Cd> integrals:      0.038 (MW) /      0.304 (MB)
	Size of irrep 2 of <Ab|Cd> integrals:      0.065 (MW) /      0.520 (MB)
	Size of irrep 3 of <Ab|Cd> integrals:      0.071 (MW) /      0.570 (MB)
	Total:                                     0.289 (MW) /      2.314 (MB)

	Size of irrep 0 of <IA|BC> integrals:      0.015 (MW) /      0.117 (MB)
	Size of irrep 1 of <IA|BC> integrals:      0.004 (MW) /      0.030 (MB)
	Size of irrep 2 of <IA|BC> integrals:      0.008 (MW) /      0.065 (MB)
	Size of irrep 3 of <IA|BC> integrals:      0.008 (MW) /      0.065 (MB)
	Total:                                     0.034 (MW) /      0.276 (MB)

	Size of irrep 0 of <ia|bc> integrals:      0.013 (MW) /      0.103 (MB)
	Size of irrep 1 of <ia|bc> integrals:      0.003 (MW) /      0.023 (MB)
	Size of irrep 2 of <ia|bc> integrals:      0.007 (MW) /      0.060 (MB)
	Size of irrep 3 of <ia|bc> integrals:      0.005 (MW) /      0.043 (MB)
	Total:                                     0.029 (MW) /      0.228 (MB)

	Size of irrep 0 of <Ia|Bc> integrals:      0.015 (MW) /      0.122 (MB)
	Size of irrep 1 of <Ia|Bc> integrals:      0.004 (MW) /      0.033 (MB)
	Size of irrep 2 of <Ia|Bc> integrals:      0.008 (MW) /      0.065 (MB)
	Size of irrep 3 of <Ia|Bc> integrals:      0.009 (MW) /      0.073 (MB)
	Total:                                     0.037 (MW) /      0.293 (MB)

	Size of irrep 0 of <iA|bC> integrals:      0.013 (MW) /      0.100 (MB)
	Size of irrep 1 of <iA|bC> integrals:      0.003 (MW) /      0.020 (MB)
	Size of irrep 2 of <iA|bC> integrals:      0.007 (MW) /      0.059 (MB)
	Size of irrep 3 of <iA|bC> integrals:      0.005 (MW) /      0.036 (MB)
	Total:                                     0.027 (MW) /      0.216 (MB)

	Size of irrep 0 of tIjAb amplitudes:       0.002 (MW) /      0.014 (MB)
	Size of irrep 1 of tIjAb amplitudes:       0.000 (MW) /      0.002 (MB)
	Size of irrep 2 of tIjAb amplitudes:       0.001 (MW) /      0.008 (MB)
	Size of irrep 3 of tIjAb amplitudes:       0.001 (MW) /      0.004 (MB)
	Total:                                     0.003 (MW) /      0.028 (MB)

	Nuclear Rep. energy          =      6.33449971542662
	SCF energy                   =   -398.09447010779644
	One-electron energy          =    -21.62009693200270
	Two-electron (AA) energy     =      2.24032610038753
	Two-electron (BB) energy     =      1.07556299634975
	Two-electron (AB) energy     =      5.37980956434128
	Two-electron energy          =      8.69569866107856
	Reference energy             =   -398.09447010779724

*** tstop() called on cqc05 at Thu Aug 20 19:55:37 2020
Module time:
	user time   =       0.05 seconds =       0.00 minutes
	system time =       0.07 seconds =       0.00 minutes
	total time  =          0 seconds =       0.00 minutes
Total time:
	user time   =       0.56 seconds =       0.01 minutes
	system time =       0.08 seconds =       0.00 minutes
	total time  =          1 seconds =       0.02 minutes

*** tstart() called on cqc05
*** at Thu Aug 20 19:55:37 2020

            **************************
            *                        *
            *        CCENERGY        *
            *                        *
            **************************

    Nuclear Rep. energy (wfn)     =    6.334499715426624
    SCF energy          (wfn)     = -398.094470107796440
    Reference energy    (file100) = -398.094470107797235

    Input parameters:
    -----------------
    Wave function   =     CCSD
    Reference wfn   =     UHF
    Brueckner       =     No
    Memory (Mbytes) =     250000.0
    Maxiter         =     50
    R_Convergence   =     1.0e-07
    E_Convergence   =     1.0e-06
    Restart         =     Yes
    DIIS            =     Yes
    AO Basis        =     NONE
    ABCD            =     NEW
    Cache Level     =     2
    Cache Type      =     LRU
    Print Level     =     1
    Num. of threads =     4
    # Amps to Print =     10
    Print MP2 Amps? =     No
    Analyze T2 Amps =     No
    Print Pair Ener =     No
    Local CC        =     No
    SCS-MP2         =     False
    SCSN-MP2        =     False
    SCS-CCSD        =     False

MP2 correlation energy -0.1218373190692778
                Solving CC Amplitude Equations
                ------------------------------
  Iter             Energy              RMS        T1Diag      D1Diag    New D1Diag    D2Diag
  ----     ---------------------    ---------   ----------  ----------  ----------   --------
     0        -0.121837319069278    0.000e+00    0.000000    0.000000    0.000000    0.000000
     1        -0.139315813079122    4.760e-02    0.008486    0.000000    0.000000    0.000000
     2        -0.144849919776322    1.717e-02    0.013294    0.000000    0.000000    0.000000
     3        -0.145273632282667    4.538e-03    0.014881    0.000000    0.000000    0.000000
     4        -0.145281112895061    1.290e-03    0.015162    0.000000    0.000000    0.000000
     5        -0.145276275521236    5.065e-04    0.015265    0.000000    0.000000    0.000000
     6        -0.145277153694304    1.481e-04    0.015274    0.000000    0.000000    0.000000
     7        -0.145278383059203    4.339e-05    0.015274    0.000000    0.000000    0.000000
     8        -0.145278427463221    1.411e-05    0.015274    0.000000    0.000000    0.000000
     9        -0.145278328979270    4.130e-06    0.015274    0.000000    0.000000    0.000000
    10        -0.145278328322458    1.586e-06    0.015274    0.000000    0.000000    0.000000
    11        -0.145278324468756    5.489e-07    0.015274    0.000000    0.000000    0.000000
    12        -0.145278326864801    2.054e-07    0.015274    0.000000    0.000000    0.000000
    13        -0.145278324819710    6.755e-08    0.015274    0.000000    0.000000    0.000000
    13        -0.145278324819710    6.755e-08    0.015274    0.000000    0.000000    0.000000

    Iterations converged.

    CCSD corr. energy   =   -0.145278324819710
    PPL corr. energy    =    0.036081520301963
    OS PPL corr. energy =    0.030275694136715
    SS PPL corr. energy =    0.005805826165248
    Largest TIA Amplitudes:
              3  26         0.0112169320
              1   5        -0.0104771998
              1   3        -0.0096139339
              3  25         0.0088219206
              1  10         0.0082580718
              1   2         0.0050608603
              1   4        -0.0049013367
              2  19         0.0046959488
              1   1         0.0041679673
              1   8         0.0040846310

    Largest Tia Amplitudes:
              0   4        -0.0141263323
              1   4         0.0131673612
              0   3         0.0110007246
              2  19        -0.0109269429
              0   9         0.0088884788
              0   5         0.0070670055
              1   9        -0.0065305430
              2  18        -0.0045463314
              0   7         0.0041447744
              1  10        -0.0040413441

    Largest TIJAB Amplitudes:
      3   2  15   4         0.0414110062
      3   1  26   3        -0.0315166087
      2   1  19   3        -0.0308539321
      3   2  15   9        -0.0208703124
      3   2  16   4         0.0207798230
      3   2  16   9        -0.0189203501
      3   2  28  21        -0.0184052477
      3   2  26  19        -0.0182871696
      2   1  19   5        -0.0182489880
      3   1  19  15        -0.0157752503

    Largest Tijab Amplitudes:
      2   1  19   3        -0.0317138340
      2   0  25  15         0.0174519349
      2   1  19   4        -0.0159984601
      2   1  27  15        -0.0148221183
      2   1  19   5        -0.0138979138
      2   1  22   3        -0.0129802932
      1   0  27  25         0.0127991000
      2   1  21   7         0.0122008590
      2   1  21   3         0.0115456250
      2   1  20   5        -0.0113263143

    Largest TIjAb Amplitudes:
      1   1   3   3         0.0838023567
      2   2  15  15         0.0473177132
      2   2   4   4        -0.0467164860
      1   1   3   7         0.0411612761
      2   0  15  25         0.0402820488
      3   0   4  25         0.0402463617
      1   1   7   3         0.0396712396
      2   2  19  19         0.0381140376
      2   2  21  21         0.0377531415
      1   1   7   7         0.0356009131

    SCF energy       (wfn)                    = -398.094470107796440
    Reference energy (file100)                = -398.094470107797235

    Opposite-spin MP2 correlation energy      =   -0.094438740138883
    Same-spin MP2 correlation energy          =   -0.027398578930386
    MP2 correlation energy                    =   -0.121837319069278
      * MP2 total energy                      = -398.216307426866535

    Opposite-spin CCSD correlation energy     =   -0.117349719419007
    Same-spin CCSD correlation energy         =   -0.027928605437244
    CCSD correlation energy                   =   -0.145278324819710
      * CCSD total energy                     = -398.239748432616921

*** tstop() called on cqc05 at Thu Aug 20 19:55:38 2020
Module time:
	user time   =       0.20 seconds =       0.00 minutes
	system time =       0.18 seconds =       0.00 minutes
	total time  =          1 seconds =       0.02 minutes

*** Psi4 exiting successfully. Buy a developer a beer!
