                               Psi4 1.2a1.dev938

  ==> Input File <==

--------------------------------------------------------------------------
# Any line starting with the # character is a comment line
memory 250000 mb
molecule molecule{
0 2
S          0.0000000000        0.0000000000       -0.0407414360
H          0.0000000000        0.0000000000        1.2958811416
}

set {
  reference uhf
  basis aug-cc-pv(6+d)z
  scf_type OUT_OF_CORE
  freeze_core true
}

energy('ccsd')
--------------------------------------------------------------------------

    Molecular point group: c2v

    Geometry (in Angstrom), charge = 0, multiplicity = 2:

       Center              X                  Y                   Z               Mass
    ------------   -----------------  -----------------  -----------------  -----------------
           S          0.000000000000     0.000000000000    -0.040845540898    31.972070999000
           H          0.000000000000     0.000000000000     1.295777036702     1.007825032070

  Charge       = 0
  Multiplicity = 2
  Basis Set: AUG-CC-PV(6+D)Z
    Blend: AUG-CC-PV(6+D)Z

    Orbital Energies (a.u.)
    -----------------------

    Alpha Occupied:

       1A1   -91.989462     2A1    -8.990532     1B1    -6.686768
       3A1    -6.668096     1B2    -6.666895     4A1    -0.988867
       5A1    -0.553460     2B1    -0.471654     2B2    -0.401882

    Alpha Virtual:

       6A1     0.020895     7A1     0.058467     3B1     0.060788
       3B2     0.065307     8A1     0.095888     9A1     0.123769
       4B1     0.152998     4B2     0.159786     1A2     0.171812
      10A1     0.172011    11A1     0.195366     5B1     0.212436
       5B2     0.217120    12A1     0.228552    13A1     0.262890
       6B1     0.273737     6B2     0.289079    14A1     0.302158
       7B1     0.379857     7B2     0.397658     2A2     0.398000
      15A1     0.398373     8B1     0.430116     8B2     0.430142
      16A1     0.430905     3A2     0.431387    17A1     0.477821
      18A1     0.501498     9B1     0.504277     9B2     0.512764
      10B1     0.516544    10B2     0.529427     4A2     0.533602
      19A1     0.534437    20A1     0.553845    21A1     0.625002
      22A1     0.776400    11B1     0.847038    12B1     0.859180
      11B2     0.859322     5A2     0.864682    23A1     0.864682
      12B2     0.877353    13B1     0.889343    13B2     0.906080
      24A1     0.960452    25A1     0.970782     6A2     0.971425
      14B1     0.980268    14B2     0.992332    26A1     0.994165
      27A1     1.011729     7A2     1.013439    15B1     1.035459
      28A1     1.041118    15B2     1.059950     8A2     1.109345
      29A1     1.109992    16B1     1.112716    16B2     1.112803
      17B1     1.150696    17B2     1.160172    30A1     1.197920
      18B1     1.221001    18B2     1.221073     9A2     1.228247
      31A1     1.229223    32A1     1.312028    19B1     1.483825
      33A1     1.500238    19B2     1.501777    34A1     1.686763
      20B1     1.913242    35A1     1.921810    10A2     1.922112
      36A1     1.927676    11A2     1.927837    20B2     1.933667
      21B1     1.953795    21B2     1.953796    37A1     1.981132
      22B1     2.023640    22B2     2.045586    23B1     2.085503
      23B2     2.085608    38A1     2.095566    12A2     2.095616
      39A1     2.129167    13A2     2.167620    40A1     2.169689
      24B1     2.170439    24B2     2.180772    25B1     2.186585
      41A1     2.193395    25B2     2.194794    14A2     2.253590
      42A1     2.254355    26B1     2.314875    43A1     2.328197
      26B2     2.331715    15A2     2.394779    44A1     2.395643
      27B1     2.419565    27B2     2.421840    16A2     2.442538
      45A1     2.442541    28B1     2.449775    28B2     2.490012
      46A1     2.545115    17A2     2.545270    29B1     2.600957
      29B2     2.600972    47A1     2.612943    30B1     2.742298
      48A1     2.750996    30B2     2.766201    49A1     2.771778
      18A2     2.799220    50A1     2.802894    31B1     2.821805
      31B2     2.840231    51A1     3.180809    32B1     3.488689
      32B2     3.514844    33B1     3.673891    33B2     3.673897
      52A1     3.823150    19A2     3.947030    53A1     3.947615
      34B1     3.996913    34B2     3.996913    35B1     4.104039
      54A1     4.104149    20A2     4.104149    35B2     4.126942
      55A1     4.216394    21A2     4.250691    56A1     4.250692
      36B1     4.305668    36B2     4.306461    37B1     4.318823
      37B2     4.346246    57A1     4.347586    22A2     4.347639
      38B1     4.396684    38B2     4.396685    58A1     4.399983
      23A2     4.403616    59A1     4.438515    24A2     4.438940
      60A1     4.440125    61A1     4.517877    25A2     4.531044
      62A1     4.532871    39B1     4.575863    39B2     4.575938
      40B1     4.605096    40B2     4.622338    41B1     4.646650
      41B2     4.646651    42B1     4.749217    42B2     4.776247
      63A1     4.795107    26A2     4.853358    64A1     4.858650
      65A1     4.922021    43B1     4.984327    43B2     4.984462
      27A2     4.992318    66A1     4.992516    44B1     5.079471
      44B2     5.110151    67A1     5.132453    28A2     5.136041
      68A1     5.176017    45B1     5.185263    45B2     5.185407
      29A2     5.324228    69A1     5.324229    46B1     5.438919
      46B2     5.438936    70A1     5.467631    30A2     5.469018
      47B1     5.482645    71A1     5.489783    47B2     5.495616
      72A1     5.794643    48B1     5.837951    48B2     5.865522
      73A1     6.018530    49B1     6.337385    49B2     6.361666
      31A2     6.465449    74A1     6.466238    50B1     7.007958
      50B2     7.031943    75A1     7.173414    51B1     7.454751
      32A2     7.462630    76A1     7.462630    51B2     7.485430
      52B1     7.984031    52B2     7.984035    77A1     8.044153
      78A1     8.226580    33A2     8.226704    53B1     8.248715
      53B2     8.272460    79A1     8.506243    80A1     8.667578
      34A2     8.667581    54B1     8.694275    54B2     8.694290
      81A1     8.757494    35A2     8.852238    82A1     8.854643
      36A2     8.892921    83A1     8.892921    55B1     8.913928
      55B2     8.913928    84A1     9.044270    37A2     9.044271
      56B1     9.204275    56B2     9.235171    57B1     9.283329
      57B2     9.283332    85A1     9.314205    38A2     9.314210
      58B1     9.399982    58B2     9.400101    86A1     9.429709
      39A2     9.499739    87A1     9.504905    59B1     9.572264
      59B2     9.595780    60B1     9.618535    60B2     9.620158
      88A1     9.699021    40A2     9.842734    89A1     9.842770
      61B1     9.931560    61B2     9.961458    62B1    10.145828
      62B2    10.145830    90A1    10.416125    41A2    10.418195
      91A1    10.495258    92A1    10.607848    42A2    10.750396
      93A1    10.751348    63B1    10.785626    63B2    10.785632
      43A2    10.922793    94A1    10.922957    95A1    11.003378
      64B1    11.219521    64B2    11.241810    65B1    11.576834
      65B2    11.596009    96A1    11.685570    44A2    11.697192
      97A1    11.705881    66B1    11.729474    66B2    11.748027
      98A1    12.838996    67B1    12.962410    67B2    12.974589
      68B1    13.899689    68B2    13.913665    99A1    14.875029
     100A1    16.551412    69B1    17.491764    69B2    17.491764
      45A2    17.630194   101A1    17.630194    70B1    17.824626
      70B2    17.824626    46A2    18.393527   102A1    18.393531
     103A1    19.129053    71B1    19.149581    71B2    19.158375
      47A2    20.294399   104A1    20.294399    72B1    20.759278
      72B2    20.759278   105A1    21.489523    48A2    21.489537
      73B1    21.552298    73B2    21.557208   106A1    21.822879
     107A1    22.749872    49A2    23.146103   108A1    23.146111
      74B1    24.094562    74B2    24.094562   109A1    24.558435
      50A2    24.571059   110A1    24.571127    75B1    24.591553
      75B2    24.596128    76B1    25.288012    76B2    25.292991
     111A1    25.590021    77B1    30.368347    77B2    30.389015
     112A1    30.787580    51A2    30.787585    78B1    31.351418
      78B2    31.367553   113A1    31.715887   114A1    34.486186
      79B1    34.768973    79B2    34.771764   115A1    37.375368
     116A1   247.854347

    Beta Occupied:

       1A1   -91.979705     2A1    -8.980704     3A1    -6.663095
       1B2    -6.661512     1B1    -6.644759     4A1    -0.895828
       5A1    -0.534253     2B2    -0.381056

    Beta Virtual:

       2B1    -0.003053     6A1     0.021650     7A1     0.058858
       3B2     0.065716     3B1     0.075114     8A1     0.099018
       9A1     0.127769     4B2     0.159571     4B1     0.159945
      10A1     0.178604     1A2     0.178740    11A1     0.198493
       5B1     0.217224     5B2     0.217282    12A1     0.233386
      13A1     0.268314     6B2     0.291420    14A1     0.308131
       6B1     0.308426     7B2     0.398300    15A1     0.404794
       2A2     0.404813     7B1     0.408877     8B2     0.433203
       8B1     0.433228    16A1     0.458248     3A2     0.458717
      17A1     0.484527    18A1     0.502904     9B1     0.507224
       9B2     0.512709    10B2     0.530286    10B1     0.536553
      19A1     0.548371     4A2     0.550014    20A1     0.559980
      21A1     0.634167    22A1     0.780535    11B1     0.861631
      11B2     0.861632     5A2     0.867692    23A1     0.867693
      12B2     0.882983    12B1     0.898104    13B1     0.903902
      13B2     0.907238    24A1     0.964519     6A2     0.982611
      25A1     0.984426    14B1     0.984627    14B2     0.992253
      26A1     0.998738    27A1     1.027043     7A2     1.027416
      28A1     1.043243    15B2     1.061508    15B1     1.066072
      16B2     1.128708    16B1     1.128719     8A2     1.133773
      29A1     1.134130    17B1     1.155134    17B2     1.160616
      30A1     1.204259    18B1     1.225149    18B2     1.225158
      31A1     1.235407     9A2     1.235451    32A1     1.317376
      19B1     1.496627    19B2     1.503119    33A1     1.506087
      34A1     1.694925    20B1     1.924142    35A1     1.927066
      10A2     1.927255    36A1     1.931743    11A2     1.931848
      20B2     1.935012    21B1     1.959437    21B2     1.959437
      37A1     1.985381    22B1     2.042465    22B2     2.047717
      23B1     2.095804    23B2     2.095824    38A1     2.109788
      12A2     2.109797    39A1     2.136618    13A2     2.172283
      40A1     2.173318    24B1     2.176350    24B2     2.184305
      25B1     2.189950    25B2     2.194431    41A1     2.201188
      42A1     2.265339    14A2     2.265578    26B1     2.323938
      43A1     2.330861    26B2     2.332987    15A2     2.412831
      44A1     2.412866    16A2     2.444426    45A1     2.444426
      27B1     2.450629    27B2     2.450719    28B1     2.488755
      28B2     2.493739    46A1     2.553501    17A2     2.553686
      29B1     2.604139    29B2     2.604143    47A1     2.617641
      48A1     2.757843    30B1     2.759019    30B2     2.768288
      49A1     2.777572    18A2     2.805318    50A1     2.807031
      31B1     2.827805    31B2     2.841015    51A1     3.181703
      32B1     3.504545    32B2     3.517639    33B1     3.677982
      33B2     3.677984    52A1     3.830337    19A2     3.952295
      53A1     3.952494    34B1     4.003021    34B2     4.003021
      20A2     4.113189    54A1     4.113189    35B1     4.114236
      35B2     4.127751    55A1     4.224124    21A2     4.259012
      56A1     4.259012    36B1     4.321920    36B2     4.322332
      37B1     4.328642    37B2     4.347028    57A1     4.370373
      22A2     4.370387    58A1     4.410382    38B1     4.411335
      38B2     4.411335    23A2     4.411757    59A1     4.444352
      24A2     4.448772    60A1     4.448778    61A1     4.522672
      25A2     4.537679    62A1     4.538370    39B1     4.583842
      39B2     4.583871    40B1     4.610985    40B2     4.622713
      41B1     4.649429    41B2     4.649429    42B1     4.756005
      42B2     4.776574    63A1     4.802044    26A2     4.860571
      64A1     4.863513    65A1     4.926672    43B1     4.994969
      43B2     4.995002    27A2     4.999797    66A1     4.999949
      44B1     5.095588    44B2     5.112791    67A1     5.145107
      28A2     5.146479    68A1     5.178652    45B1     5.200706
      45B2     5.200718    29A2     5.326598    69A1     5.326598
      46B1     5.441069    46B2     5.441079    70A1     5.473020
      30A2     5.473819    47B1     5.487213    71A1     5.494151
      47B2     5.495997    72A1     5.795760    48B1     5.851844
      48B2     5.866658    73A1     6.024458    49B1     6.345092
      49B2     6.362795    31A2     6.472928    74A1     6.473296
      50B1     7.019699    50B2     7.033306    75A1     7.175360
      32A2     7.463779    76A1     7.463779    51B1     7.476432
      51B2     7.488583    52B1     7.988331    52B2     7.988333
      77A1     8.046595    78A1     8.230796    33A2     8.230904
      53B1     8.257095    53B2     8.273698    79A1     8.509509
      80A1     8.684487    34A2     8.684488    54B1     8.705387
      54B2     8.705391    81A1     8.765476    35A2     8.859750
      82A1     8.860836    36A2     8.906942    83A1     8.906942
      55B1     8.925589    55B2     8.925589    84A1     9.054124
      37A2     9.054125    56B1     9.213139    56B2     9.235660
      57B1     9.300154    57B2     9.300155    85A1     9.327206
      38A2     9.327207    58B1     9.410062    58B2     9.410103
      86A1     9.436195    39A2     9.506421    87A1     9.509142
      59B1     9.581597    59B2     9.598673    60B1     9.624264
      60B2     9.624809    88A1     9.701845    40A2     9.844675
      89A1     9.844699    61B1     9.942078    61B2     9.963512
      62B1    10.146787    62B2    10.146788    90A1    10.424892
      41A2    10.426263    91A1    10.497507    92A1    10.611574
      42A2    10.757370    93A1    10.757892    63B1    10.793751
      63B2    10.793752    43A2    10.924805    94A1    10.924909
      95A1    11.007092    64B1    11.228353    64B2    11.243030
      65B1    11.581975    65B2    11.596574    96A1    11.693288
      44A2    11.702775    97A1    11.708430    66B1    11.733335
      66B2    11.747901    98A1    12.839958    67B1    12.964428
      67B2    12.974396    68B1    13.902693    68B2    13.913557
      99A1    14.879967   100A1    16.552533    69B1    17.491795
      69B2    17.491795    45A2    17.630409   101A1    17.630409
      70B1    17.825027    70B2    17.825027    46A2    18.394129
     102A1    18.394130   103A1    19.129681    71B1    19.150674
      71B2    19.158183   104A1    20.294170    47A2    20.294170
      72B1    20.759206    72B2    20.759206   105A1    21.489408
      48A2    21.489421    73B1    21.552474    73B2    21.556753
     106A1    21.822759   107A1    22.749017    49A2    23.145553
     108A1    23.145559    74B1    24.094092    74B2    24.094092
     109A1    24.557910    50A2    24.570631   110A1    24.570684
      75B1    24.591425    75B2    24.595443    76B1    25.288163
      76B2    25.292473   111A1    25.589782    77B1    30.390685
      77B2    30.392495    51A2    30.801235   112A1    30.801274
      78B1    31.365933    78B2    31.370159   113A1    31.721332
     114A1    34.488679    79B1    34.768531    79B2    34.770919
     115A1    37.375140   116A1   247.858115

    Final Occupation by Irrep:
             A1    A2    B1    B2
    DOCC [     5,    0,    1,    2 ]
    SOCC [     0,    0,    1,    0 ]

  Energy converged.

  @UHF Final Energy:  -398.11091943381518

   => Energetics <=

    Nuclear Repulsion Energy =              6.3344997154266238
    One-Electron Energy =                -562.7323106208373247
    Two-Electron Energy =                 158.2868914715954816
    Total Energy =                       -398.1109194338151838

  UHF NO Occupations:
  HONO-2 :    2 B2 1.9994093
  HONO-1 :    5 A1 1.9935090
  HONO-0 :    2 B1 1.0000000
  LUNO+0 :    6 A1 0.0064910
  LUNO+1 :    3 B2 0.0005907
  LUNO+2 :    7 A1 0.0003878
  LUNO+3 :    3 B1 0.0000046

Properties will be evaluated at   0.000000,   0.000000,   0.000000 Bohr

Properties computed using the SCF density matrix

  Nuclear Dipole Moment: (a.u.)
     X:     0.0000      Y:     0.0000      Z:     1.2137

  Electronic Dipole Moment: (a.u.)
     X:     0.0000      Y:     0.0000      Z:    -0.8831

  Dipole Moment: (a.u.)
     X:     0.0000      Y:     0.0000      Z:     0.3306     Total:     0.3306

  Dipole Moment: (Debye)
     X:     0.0000      Y:     0.0000      Z:     0.8402     Total:     0.8402

*** tstop() called on cqc05 at Wed Aug 26 19:19:03 2020
Module time:
	user time   =     287.62 seconds =       4.79 minutes
	system time =      20.03 seconds =       0.33 minutes
	total time  =        392 seconds =       6.53 minutes
Total time:
	user time   =     287.62 seconds =       4.79 minutes
	system time =      20.03 seconds =       0.33 minutes
	total time  =        392 seconds =       6.53 minutes

*** tstart() called on cqc05
*** at Wed Aug 26 19:19:03 2020

	Wfn Parameters:
	--------------------
	Wavefunction         = CCSD
	Number of irreps     = 4
	Number of MOs        = 325
	Number of active MOs = 320
	AO-Basis             = NONE
	Semicanonical        = false
	Reference            = UHF
	Print Level          = 1

	IRREP	# MOs	# FZDC	# DOCC	# SOCC	# VIRT	# FZVR
	-----	-----	------	------	------	------	------
	 A1	   116	    3	    2	    0	    111	    0
	 A2	   51	    0	    0	    0	    51	    0
	 B1	   79	    1	    0	    1	    77	    0
	 B2	   79	    1	    1	    0	    77	    0
	Transforming integrals...
	IWL integrals will be deleted.
	(OO|OO)...
	Presorting SO-basis two-electron integrals.
	Sorting File: SO Ints (nn|nn) nbuckets = 1
	Transforming the one-electron integrals and constructing Fock matrices
	Starting AA/AB first half-transformation.
	Sorting AA/AB half-transformed integrals.
	Starting BB first half-transformation.
	Sorting BB half-transformed integrals.
	First half integral transformation complete.
	Starting AA second half-transformation.
	Starting AB second half-transformation.
	Starting BB second half-transformation.
	Two-electron integral transformation complete.
	(OO|OV)...
	Starting AA second half-transformation.
	Starting AB second half-transformation.
	Starting BB second half-transformation.
	Two-electron integral transformation complete.
	(OO|VV)...
	Starting AA second half-transformation.
	Starting AB second half-transformation.
	Starting BB second half-transformation.
	Two-electron integral transformation complete.
	(OV|OO)...
	Starting AA/AB first half-transformation.
	Sorting AA/AB half-transformed integrals.
	Starting BB first half-transformation.
	Sorting BB half-transformed integrals.
	First half integral transformation complete.
	Starting AA second half-transformation.
	Starting AB second half-transformation.
	Starting BB second half-transformation.
	Two-electron integral transformation complete.
	(OV|OV)...
	Starting AA second half-transformation.
	Starting AB second half-transformation.
	Starting BB second half-transformation.
	Two-electron integral transformation complete.
	(OV|VV)...
	Starting AA second half-transformation.
	Starting AB second half-transformation.
	Starting BB second half-transformation.
	Two-electron integral transformation complete.
	(VV|OO)...
	Starting AA/AB first half-transformation.
	Sorting AA/AB half-transformed integrals.
	Starting BB first half-transformation.
	Sorting BB half-transformed integrals.
	First half integral transformation complete.
	Starting AA second half-transformation.
	Starting AB second half-transformation.
	Starting BB second half-transformation.
	Two-electron integral transformation complete.
	(VV|OV)...
	Starting AA second half-transformation.
	Starting AB second half-transformation.
	Starting BB second half-transformation.
	Two-electron integral transformation complete.
	(VV|VV)...
	Starting AA second half-transformation.
	Starting AB second half-transformation.
	Starting BB second half-transformation.
	Two-electron integral transformation complete.
	Frozen core energy     =   -391.51256538779597

	Size of irrep 0 of <AB|CD> integrals:    175.086 (MW) /   1400.687 (MB)
	Size of irrep 1 of <AB|CD> integrals:    134.328 (MW) /   1074.625 (MB)
	Size of irrep 2 of <AB|CD> integrals:    155.601 (MW) /   1244.805 (MB)
	Size of irrep 3 of <AB|CD> integrals:    155.601 (MW) /   1244.805 (MB)
	Total:                                   620.615 (MW) /   4964.922 (MB)

	Size of irrep 0 of <ab|cd> integrals:    177.129 (MW) /   1417.036 (MB)
	Size of irrep 1 of <ab|cd> integrals:    136.119 (MW) /   1088.951 (MB)
	Size of irrep 2 of <ab|cd> integrals:    158.382 (MW) /   1267.058 (MB)
	Size of irrep 3 of <ab|cd> integrals:    156.876 (MW) /   1255.005 (MB)
	Total:                                   628.506 (MW) /   5028.050 (MB)

	Size of irrep 0 of <Ab|Cd> integrals:    721.298 (MW) /   5770.388 (MB)
	Size of irrep 1 of <Ab|Cd> integrals:    540.888 (MW) /   4327.104 (MB)
	Size of irrep 2 of <Ab|Cd> integrals:    627.953 (MW) /   5023.628 (MB)
	Size of irrep 3 of <Ab|Cd> integrals:    624.950 (MW) /   4999.600 (MB)
	Total:                                  2515.090 (MW) /  20120.720 (MB)

	Size of irrep 0 of <IA|BC> integrals:     10.069 (MW) /     80.554 (MB)
	Size of irrep 1 of <IA|BC> integrals:      5.934 (MW) /     47.473 (MB)
	Size of irrep 2 of <IA|BC> integrals:      7.884 (MW) /     63.069 (MB)
	Size of irrep 3 of <IA|BC> integrals:      7.884 (MW) /     63.069 (MB)
	Total:                                    31.770 (MW) /    254.164 (MB)

      * MP2 total energy                      = -398.285049522334077
      * CCSD total energy                     = -398.304719271998522
*** Psi4 exiting successfully. Buy a developer a beer!
