                               Psi4 1.4a3.dev88

  ==> Input File <==

--------------------------------------------------------------------------
# Any line starting with the # character is a comment line
memory 250000 mb
molecule molecule{
0 3
C          0.0000000000        0.0000000000        0.0000000000
}

set {
  reference uhf
  basis aug-cc-pv(5+d)z
  scf_type OUT_OF_CORE
  freeze_core true
}

energy('ccsd(t)')
--------------------------------------------------------------------------

    Molecular point group: d2h
    Geometry (in Angstrom), charge = 0, multiplicity = 3:

       Center              X                  Y                   Z               Mass
    ------------   -----------------  -----------------  -----------------  -----------------
         C            0.000000000000     0.000000000000     0.000000000000    12.000000000000

  Charge       = 0
  Multiplicity = 3
  Basis Set: AUG-CC-PV(5+D)Z
    Blend: AUG-CC-PV(5+D)Z

    Orbital Energies [Eh]
    ---------------------

    Alpha Occupied:

       1Ag   -11.345518     2Ag    -0.829224     1B1u   -0.439091
       1B2u   -0.439091

    Alpha Virtual:

       1B3u    0.016232     2B2u    0.066116     2B1u    0.066116
       3Ag     0.074282     2B3u    0.084657     4Ag     0.212713
       1B2g    0.213183     1B1g    0.213183     1B3g    0.215187
       5Ag     0.215187     3B2u    0.294389     3B1u    0.294389
       3B3u    0.330402     6Ag     0.428559     4B3u    0.557352
       4B2u    0.558332     4B1u    0.558332     1Au     0.561337
       5B3u    0.561337     5B1u    0.566438     5B2u    0.566438
       2B3g    0.660542     7Ag     0.660542     2B1g    0.668001
       2B2g    0.668001     8Ag     0.671370     6B2u    0.955804
       6B1u    0.955804     6B3u    0.991329     9Ag     1.562529
       3B2g    1.563763     3B1g    1.563763    10Ag     1.567481
       3B3g    1.567481     4B2g    1.573721     4B1g    1.573721
      11Ag     1.582492     4B3g    1.582492     7B3u    1.633372
       7B1u    1.635129     7B2u    1.635129     8B3u    1.640409
       2Au     1.640409     8B1u    1.649187     8B2u    1.649187
      12Ag     1.654483     5B3g    1.731263    13Ag     1.731263
       5B2g    1.740940     5B1g    1.740940    14Ag     1.746216
       9B1u    2.711785     9B2u    2.711785     9B3u    2.723185
      10B3u    3.482852    10B1u    3.484186    10B2u    3.484186
       3Au     3.488199    11B3u    3.488199    11B2u    3.494914
      11B1u    3.494914     4Au     3.504373    12B3u    3.504373
      12B2u    3.516636    12B1u    3.516636    15Ag     4.070475
       6B2g    4.072705     6B1g    4.072705    13B3u    4.073285
      13B2u    4.076271    13B1u    4.076271    16Ag     4.079408
       6B3g    4.079408    14B3u    4.085237     5Au     4.085237
       7B1g    4.090604     7B2g    4.090604    14B2u    4.100214
      14B1u    4.100214     7B3g    4.106303    17Ag     4.106303
      18Ag     4.502002     8B2g    4.504030     8B1g    4.504030
      19Ag     4.510588     8B3g    4.510588    20Ag     6.013731
      15B3u    8.496782    15B1u    8.505739    15B2u    8.505739
      16B3u    8.922750    16B1u    8.924888    16B2u    8.924888
       6Au     8.931314    17B3u    8.931314    17B2u    8.942058
      17B1u    8.942058     7Au     8.957170    18B3u    8.957170
      18B2u    8.976721    18B1u    8.976721    19B3u   10.050699
      19B1u   10.054941    19B2u   10.054941    20B3u   10.067716
       8Au    10.067716    20B1u   10.089170    20B2u   10.089170
      21Ag    10.347489     9B1g   10.350612     9B2g   10.350612
      22Ag    10.359995     9B3g   10.359995    10B1g   10.375684
      10B2g   10.375684    10B3g   10.397750    23Ag    10.397750
      24Ag    11.939345    11B2g   11.945710    11B1g   11.945710
      25Ag    11.965129    11B3g   11.965129    26Ag    34.129290

    Beta Occupied:

       1Ag   -11.300470     2Ag    -0.583420

    Beta Virtual:

       1B3u    0.033201     1B2u    0.050657     1B1u    0.050657
       3Ag     0.082093     2B3u    0.099782     2B1u    0.135149
       2B2u    0.135149     4Ag     0.215652     1B2g    0.217559
       1B1g    0.217559     1B3g    0.223768     5Ag     0.223768
       3B3u    0.346481     3B2u    0.378281     3B1u    0.378281
       6Ag     0.461657     4B3u    0.560608     4B2u    0.562091
       4B1u    0.562091     1Au     0.566572     5B3u    0.566572
       5B1u    0.574282     5B2u    0.574282     7Ag     0.693362
       2B1g    0.699997     2B2g    0.699997     2B3g    0.722356
       8Ag     0.722356     6B3u    1.010906     6B2u    1.052938
       6B1u    1.052938     9Ag     1.568979     3B2g    1.570695
       3B1g    1.570695    10Ag     1.575878     3B3g    1.575878
       4B2g    1.584628     4B1g    1.584628    11Ag     1.597143
       4B3g    1.597143     7B3u    1.650450     7B1u    1.654690
       7B2u    1.654690     8B3u    1.667520     2Au     1.667520
       8B1u    1.689473     8B2u    1.689473    12Ag     1.713323
      13Ag     1.789728     5B2g    1.801993     5B1g    1.801993
       5B3g    1.842784    14Ag     1.842784     9B3u    2.745110
       9B1u    2.801203     9B2u    2.801203    10B3u    3.491583
      10B1u    3.493347    10B2u    3.493347     3Au     3.498654
      11B3u    3.498654    11B2u    3.507549    11B1u    3.507549
       4Au     3.520109    12B3u    3.520109    12B2u    3.536447
      12B1u    3.536447    15Ag     4.088491     6B2g    4.091992
       6B1g    4.091992    16Ag     4.102543     6B3g    4.102543
      13B3u    4.104553    13B2u    4.111574    13B1u    4.111574
       7B1g    4.120307     7B2g    4.120307    14B3u    4.132826
       5Au     4.132826     7B3g    4.145599    17Ag     4.145599
      14B2u    4.169044    14B1u    4.169044    18Ag     4.546078
       8B2g    4.561671     8B1g    4.561671    19Ag     4.611093
       8B3g    4.611093    20Ag     6.064589    15B3u    8.513680
      15B1u    8.564694    15B2u    8.564694    16B3u    8.940109
      16B1u    8.943016    16B2u    8.943016     6Au     8.951754
      17B3u    8.951754    17B2u    8.966378    17B1u    8.966378
       7Au     8.986978    18B3u    8.986978    18B2u    9.013691
      18B1u    9.013691    19B3u   10.081609    19B2u   10.089496
      19B1u   10.089496    20B3u   10.113313     8Au    10.113313
      20B1u   10.153623    20B2u   10.153623    21Ag    10.372557
       9B1g   10.377337     9B2g   10.377337    22Ag    10.391720
       9B3g   10.391720    10B1g   10.415834    10B2g   10.415834
      10B3g   10.449910    23Ag    10.449910    24Ag    11.967673
      11B2g   11.982234    11B1g   11.982234    25Ag    12.027091
      11B3g   12.027091    26Ag    34.148205

    Final Occupation by Irrep:
             Ag   B1g   B2g   B3g    Au   B1u   B2u   B3u
    DOCC [     2,    0,    0,    0,    0,    0,    0,    0 ]
    SOCC [     0,    0,    0,    0,    0,    1,    1,    0 ]

  @UHF Final Energy:   -37.69368995020129

   => Energetics <=

    Nuclear Repulsion Energy =              0.0000000000000000
    One-Electron Energy =                 -50.4505660075522258
    Two-Electron Energy =                  12.7568760573509365
    Total Energy =                        -37.6936899502012892

  UHF NO Occupations:
  HONO-2 :    2 Ag 1.9947662
  HONO-1 :    1B2u 1.0000000
  HONO-0 :    1B1u 1.0000000
  LUNO+0 :    3 Ag 0.0052338
  LUNO+1 :    4 Ag 0.0000038
  LUNO+2 :    5 Ag 0.0000000
  LUNO+3 :    2B1u 0.0000000

Computation Completed

Properties will be evaluated at   0.000000,   0.000000,   0.000000 [a0]

Properties computed using the SCF density matrix

  Nuclear Dipole Moment: [e a0]
     X:     0.0000      Y:     0.0000      Z:     0.0000

  Electronic Dipole Moment: [e a0]
     X:     0.0000      Y:     0.0000      Z:     0.0000

  Dipole Moment: [e a0]
     X:     0.0000      Y:     0.0000      Z:     0.0000     Total:     0.0000

  Dipole Moment: [D]
     X:     0.0000      Y:     0.0000      Z:     0.0000     Total:     0.0000

*** tstop() called on n412-041.vsc4.prov at Wed Jan 20 22:03:27 2021
Module time:
	user time   =      28.37 seconds =       0.47 minutes
	system time =       1.16 seconds =       0.02 minutes
	total time  =         16 seconds =       0.27 minutes
Total time:
	user time   =      28.37 seconds =       0.47 minutes
	system time =       1.16 seconds =       0.02 minutes
	total time  =         16 seconds =       0.27 minutes

*** tstart() called on n412-041.vsc4.prov
*** at Wed Jan 20 22:03:27 2021

	Wfn Parameters:
	--------------------
	Wavefunction         = CCSD_T
	Number of irreps     = 8
	Number of MOs        = 127
	Number of active MOs = 126
	AO-Basis             = NONE
	Semicanonical        = false
	Reference            = UHF
	Print Level          = 1

	IRREP	# MOs	# FZDC	# DOCC	# SOCC	# VIRT	# FZVR
	-----	-----	------	------	------	------	------
	 Ag	   26	    1	    1	    0	    24	    0
	 B1g	   11	    0	    0	    0	    11	    0
	 B2g	   11	    0	    0	    0	    11	    0
	 B3g	   11	    0	    0	    0	    11	    0
	 Au	   8	    0	    0	    0	    8	    0
	 B1u	   20	    0	    0	    1	    19	    0
	 B2u	   20	    0	    0	    1	    19	    0
	 B3u	   20	    0	    0	    0	    20	    0
	Transforming integrals...
	IWL integrals will be deleted.
	(OO|OO)...
	Presorting SO-basis two-electron integrals.
	Sorting File: SO Ints (nn|nn) nbuckets = 1
	Constructing frozen core operators
	Starting AA/AB first half-transformation.
	Sorting AA/AB half-transformed integrals.
	Starting BB first half-transformation.
	Sorting BB half-transformed integrals.
	First half integral transformation complete.
	Starting AA second half-transformation.
	Starting AB second half-transformation.
	Starting BB second half-transformation.
	Two-electron integral transformation complete.
	(OO|OV)...
	Starting AA second half-transformation.
	Starting AB second half-transformation.
	Starting BB second half-transformation.
	Two-electron integral transformation complete.
	(OO|VV)...
	Starting AA second half-transformation.
	Starting AB second half-transformation.
	Starting BB second half-transformation.
	Two-electron integral transformation complete.
	(OV|OO)...
	Starting AA/AB first half-transformation.
	Sorting AA/AB half-transformed integrals.
	Starting BB first half-transformation.
	Sorting BB half-transformed integrals.
	First half integral transformation complete.
	Starting AA second half-transformation.
	Starting AB second half-transformation.
	Starting BB second half-transformation.
	Two-electron integral transformation complete.
	(OV|OV)...
	Starting AA second half-transformation.
	Starting AB second half-transformation.
	Starting BB second half-transformation.
	Two-electron integral transformation complete.
	(OV|VV)...
	Starting AA second half-transformation.
	Starting AB second half-transformation.
	Starting BB second half-transformation.
	Two-electron integral transformation complete.
	(VV|OO)...
	Starting AA/AB first half-transformation.
	Sorting AA/AB half-transformed integrals.
	Starting BB first half-transformation.
	Sorting BB half-transformed integrals.
	First half integral transformation complete.
	Starting AA second half-transformation.
	Starting AB second half-transformation.
	Starting BB second half-transformation.
	Two-electron integral transformation complete.
	(VV|OV)...
	Starting AA second half-transformation.
	Starting AB second half-transformation.
	Starting BB second half-transformation.
	Two-electron integral transformation complete.
	(VV|VV)...
	Starting AA second half-transformation.
	Starting AB second half-transformation.
	Starting BB second half-transformation.
	Two-electron integral transformation complete.
	Frozen core energy     =    -32.35994186162657

	Size of irrep 0 of <AB|CD> integrals:      1.002 (MW) /      8.016 (MB)
	Size of irrep 1 of <AB|CD> integrals:      0.841 (MW) /      6.727 (MB)
	Size of irrep 2 of <AB|CD> integrals:      0.841 (MW) /      6.727 (MB)
	Size of irrep 3 of <AB|CD> integrals:      0.821 (MW) /      6.567 (MB)
	Size of irrep 4 of <AB|CD> integrals:      0.689 (MW) /      5.511 (MB)
	Size of irrep 5 of <AB|CD> integrals:      0.947 (MW) /      7.574 (MB)
	Size of irrep 6 of <AB|CD> integrals:      0.947 (MW) /      7.574 (MB)
	Size of irrep 7 of <AB|CD> integrals:      0.972 (MW) /      7.778 (MB)
	Total:                                     7.059 (MW) /     56.473 (MB)

	Size of irrep 0 of <ab|cd> integrals:      1.080 (MW) /      8.636 (MB)
	Size of irrep 1 of <ab|cd> integrals:      0.893 (MW) /      7.144 (MB)
	Size of irrep 2 of <ab|cd> integrals:      0.893 (MW) /      7.144 (MB)
	Size of irrep 3 of <ab|cd> integrals:      0.893 (MW) /      7.144 (MB)
	Size of irrep 4 of <ab|cd> integrals:      0.726 (MW) /      5.807 (MB)
	Size of irrep 5 of <ab|cd> integrals:      1.016 (MW) /      8.129 (MB)
	Size of irrep 6 of <ab|cd> integrals:      1.016 (MW) /      8.129 (MB)
	Size of irrep 7 of <ab|cd> integrals:      1.016 (MW) /      8.129 (MB)
	Total:                                     7.533 (MW) /     60.262 (MB)

	Size of irrep 0 of <Ab|Cd> integrals:      4.679 (MW) /     37.429 (MB)
	Size of irrep 1 of <Ab|Cd> integrals:      3.467 (MW) /     27.736 (MB)
	Size of irrep 2 of <Ab|Cd> integrals:      3.467 (MW) /     27.736 (MB)
	Size of irrep 3 of <Ab|Cd> integrals:      3.422 (MW) /     27.380 (MB)
	Size of irrep 4 of <Ab|Cd> integrals:      2.829 (MW) /     22.633 (MB)
	Size of irrep 5 of <Ab|Cd> integrals:      3.924 (MW) /     31.395 (MB)
	Size of irrep 6 of <Ab|Cd> integrals:      3.924 (MW) /     31.395 (MB)
	Size of irrep 7 of <Ab|Cd> integrals:      3.976 (MW) /     31.808 (MB)
	Total:                                    29.689 (MW) /    237.512 (MB)

	Size of irrep 0 of <IA|BC> integrals:      0.132 (MW) /      1.054 (MB)
	Size of irrep 1 of <IA|BC> integrals:      0.072 (MW) /      0.572 (MB)
	Size of irrep 2 of <IA|BC> integrals:      0.072 (MW) /      0.572 (MB)
	Size of irrep 3 of <IA|BC> integrals:      0.089 (MW) /      0.710 (MB)
	Size of irrep 4 of <IA|BC> integrals:      0.050 (MW) /      0.398 (MB)
	Size of irrep 5 of <IA|BC> integrals:      0.105 (MW) /      0.841 (MB)
	Size of irrep 6 of <IA|BC> integrals:      0.105 (MW) /      0.841 (MB)
	Size of irrep 7 of <IA|BC> integrals:      0.083 (MW) /      0.663 (MB)
	Total:                                     0.706 (MW) /      5.651 (MB)

	Size of irrep 0 of <ia|bc> integrals:      0.053 (MW) /      0.423 (MB)
	Size of irrep 1 of <ia|bc> integrals:      0.021 (MW) /      0.166 (MB)
	Size of irrep 2 of <ia|bc> integrals:      0.021 (MW) /      0.166 (MB)
	Size of irrep 3 of <ia|bc> integrals:      0.021 (MW) /      0.166 (MB)
	Size of irrep 4 of <ia|bc> integrals:      0.014 (MW) /      0.109 (MB)
	Size of irrep 5 of <ia|bc> integrals:      0.040 (MW) /      0.323 (MB)
	Size of irrep 6 of <ia|bc> integrals:      0.040 (MW) /      0.323 (MB)
	Size of irrep 7 of <ia|bc> integrals:      0.040 (MW) /      0.323 (MB)
	Total:                                     0.250 (MW) /      1.999 (MB)

	Size of irrep 0 of <Ia|Bc> integrals:      0.138 (MW) /      1.107 (MB)
	Size of irrep 1 of <Ia|Bc> integrals:      0.073 (MW) /      0.581 (MB)
	Size of irrep 2 of <Ia|Bc> integrals:      0.073 (MW) /      0.581 (MB)
	Size of irrep 3 of <Ia|Bc> integrals:      0.094 (MW) /      0.755 (MB)
	Size of irrep 4 of <Ia|Bc> integrals:      0.050 (MW) /      0.404 (MB)
	Size of irrep 5 of <Ia|Bc> integrals:      0.109 (MW) /      0.872 (MB)
	Size of irrep 6 of <Ia|Bc> integrals:      0.109 (MW) /      0.872 (MB)
	Size of irrep 7 of <Ia|Bc> integrals:      0.084 (MW) /      0.670 (MB)
	Total:                                     0.730 (MW) /      5.841 (MB)

	Size of irrep 0 of <iA|bC> integrals:      0.052 (MW) /      0.415 (MB)
	Size of irrep 1 of <iA|bC> integrals:      0.020 (MW) /      0.164 (MB)
	Size of irrep 2 of <iA|bC> integrals:      0.020 (MW) /      0.164 (MB)
	Size of irrep 3 of <iA|bC> integrals:      0.020 (MW) /      0.163 (MB)
	Size of irrep 4 of <iA|bC> integrals:      0.013 (MW) /      0.108 (MB)
	Size of irrep 5 of <iA|bC> integrals:      0.038 (MW) /      0.301 (MB)
	Size of irrep 6 of <iA|bC> integrals:      0.038 (MW) /      0.301 (MB)
	Size of irrep 7 of <iA|bC> integrals:      0.040 (MW) /      0.319 (MB)
	Total:                                     0.242 (MW) /      1.935 (MB)

	Size of irrep 0 of tIjAb amplitudes:       0.002 (MW) /      0.017 (MB)
	Size of irrep 1 of tIjAb amplitudes:       0.000 (MW) /      0.000 (MB)
	Size of irrep 2 of tIjAb amplitudes:       0.000 (MW) /      0.000 (MB)
	Size of irrep 3 of tIjAb amplitudes:       0.000 (MW) /      0.000 (MB)
	Size of irrep 4 of tIjAb amplitudes:       0.000 (MW) /      0.000 (MB)
	Size of irrep 5 of tIjAb amplitudes:       0.002 (MW) /      0.016 (MB)
	Size of irrep 6 of tIjAb amplitudes:       0.002 (MW) /      0.016 (MB)
	Size of irrep 7 of tIjAb amplitudes:       0.000 (MW) /      0.000 (MB)
	Total:                                     0.006 (MW) /      0.049 (MB)

	Nuclear Rep. energy          =      0.00000000000000
	SCF energy                   =    -37.69368995020129
	One-electron energy          =     -8.37667036121833
	Two-electron (AA) energy     =      1.38163143950755
	Two-electron (BB) energy     =      0.00000000000000
	Two-electron (AB) energy     =      1.66129083313604
	Two-electron energy          =      3.04292227264359
	Reference energy             =    -37.69368995020131

*** tstop() called on n412-041.vsc4.prov at Wed Jan 20 22:03:45 2021
Module time:
	user time   =       3.06 seconds =       0.05 minutes
	system time =       3.05 seconds =       0.05 minutes
	total time  =         18 seconds =       0.30 minutes
Total time:
	user time   =      31.43 seconds =       0.52 minutes
	system time =       4.21 seconds =       0.07 minutes
	total time  =         34 seconds =       0.57 minutes
            **************************
            *                        *
            *        CCENERGY        *
            *                        *
            **************************

    Nuclear Rep. energy (wfn)     =    0.000000000000000
    SCF energy          (wfn)     =  -37.693689950201289
    Reference energy    (file100) =  -37.693689950201311

    Input parameters:
    -----------------
    Wave function   =     CCSD_T
    Reference wfn   =     UHF
    Brueckner       =     No
    Memory (Mbytes) =     250000.0
    Maxiter         =     50
    R_Convergence   =     1.0e-07
    E_Convergence   =     1.0e-06
    Restart         =     Yes
    DIIS            =     Yes
    AO Basis        =     NONE
    ABCD            =     NEW
    Cache Level     =     2
    Cache Type      =     LRU
    Print Level     =     1
    Num. of threads =     48
    # Amps to Print =     10
    Print MP2 Amps? =     No
    Analyze T2 Amps =     No
    Print Pair Ener =     No
    Local CC        =     No
    SCS-MP2         =     False
    SCSN-MP2        =     False
    SCS-CCSD        =     False

MP2 correlation energy -0.0744210410031438
                Solving CC Amplitude Equations
                ------------------------------
  Iter             Energy              RMS        T1Diag      D1Diag    New D1Diag    D2Diag
  ----     ---------------------    ---------   ----------  ----------  ----------   --------
     0        -0.074421041003144    0.000e+00    0.000000    0.000000    0.000000    0.000000
     1        -0.085511225108030    4.467e-02    0.006927    0.000000    0.000000    0.000000
     2        -0.091743476983111    2.048e-02    0.012237    0.000000    0.000000    0.000000
     3        -0.092144876891080    5.027e-03    0.013929    0.000000    0.000000    0.000000
     4        -0.092213242561126    9.785e-04    0.014102    0.000000    0.000000    0.000000
     5        -0.092203981614771    2.733e-04    0.014078    0.000000    0.000000    0.000000
     6        -0.092205152475146    7.246e-05    0.014060    0.000000    0.000000    0.000000
     7        -0.092206328981685    1.836e-05    0.014058    0.000000    0.000000    0.000000
     8        -0.092206123973926    5.949e-06    0.014057    0.000000    0.000000    0.000000
     9        -0.092206045758319    1.888e-06    0.014057    0.000000    0.000000    0.000000
    10        -0.092206043902864    6.998e-07    0.014057    0.000000    0.000000    0.000000
    11        -0.092206051214373    1.493e-07    0.014057    0.000000    0.000000    0.000000
    12        -0.092206049484114    4.446e-08    0.014057    0.000000    0.000000    0.000000

      * MP2 total energy                      =  -37.768110991204452
      * CCSD total energy                     =  -37.785895999685422
      * CCSD(T) total energy                     =  -37.788379966201660
*** Psi4 exiting successfully. Buy a developer a beer!
