                               Psi4 1.2a1.dev938

  ==> Input File <==

--------------------------------------------------------------------------
# Any line starting with the # character is a comment line
memory 250000 mb
molecule molecule{
0 2
Al          0.0000000000        0.0000000000        0.0000000000
}

set {
  reference uhf
  basis aug-cc-pv(5+d)z
  scf_type OUT_OF_CORE
  freeze_core true
}

energy('ccsd')
--------------------------------------------------------------------------

    Molecular point group: d2h
    Geometry (in Angstrom), charge = 0, multiplicity = 2:

       Center              X                  Y                   Z               Mass
    ------------   -----------------  -----------------  -----------------  -----------------
          AL          0.000000000000     0.000000000000     0.000000000000    26.981538627000

  Charge       = 0
  Multiplicity = 2
  Basis Set: AUG-CC-PV(5+D)Z
    Blend: AUG-CC-PV(5+D)Z

    Orbital Energies (a.u.)
    -----------------------

    Alpha Occupied:

       1Ag   -58.500982     2Ag    -4.910721     1B1u   -3.225219
       1B3u   -3.217872     1B2u   -3.217872     3Ag    -0.425533
       2B1u   -0.218529

    Alpha Virtual:

       2B3u    0.009256     2B2u    0.009256     3B1u    0.032835
       4Ag     0.034029     3B3u    0.044523     3B2u    0.044523
       5Ag     0.075473     1B1g    0.075473     1B3g    0.076721
       1B2g    0.076721     6Ag     0.077433     4B1u    0.175372
       4B2u    0.192978     4B3u    0.192978     5B3u    0.199538
       5B2u    0.199538     7Ag     0.201876     5B1u    0.203520
       1Au     0.203520     6B2u    0.207080     6B3u    0.207080
       6B1u    0.207375     8Ag     0.224447     2B3g    0.226062
       2B2g    0.226062     9Ag     0.234325     2B1g    0.234325
       3B1g    0.523032    10Ag     0.523032     3B2g    0.529342
       3B3g    0.529342    11Ag     0.533770     4B1g    0.533770
       4B3g    0.536235     4B2g    0.536235    12Ag     0.537009
      13Ag     0.563269     5B3g    0.563723     5B2g    0.563723
      14Ag     0.566438     5B1g    0.566438     7B3u    0.568295
       7B2u    0.568295     7B1u    0.573673     2Au     0.573673
       8B2u    0.576460     8B3u    0.576460     8B1u    0.577309
       9B1u    0.683021     9B2u    0.688992     9B3u    0.688992
      15Ag     0.773583    10B3u    1.295697    10B2u    1.295697
      16Ag     1.302356     6B1g    1.302356    10B1u    1.304506
       3Au     1.304506    11B2u    1.306286    11B3u    1.306286
      12B2u    1.309730    12B3u    1.309730    11B1u    1.311458
       6B3g    1.313016     6B2g    1.313016     4Au     1.315159
      12B1u    1.315159    17Ag     1.316674    13B2u    1.322210
      13B3u    1.322210    13B1u    1.327328     5Au     1.327328
      14B2u    1.330434    14B3u    1.330434    14B1u    1.331475
       7B1g    1.405087    18Ag     1.405087     7B3g    1.414934
       7B2g    1.414934    19Ag     1.422170     8B1g    1.422170
       8B3g    1.426610     8B2g    1.426610    20Ag     1.428110
      15B3u    2.455418    15B2u    2.455418    15B1u    2.463172
      21Ag     2.658982     9B1g    2.658982     9B3g    2.673523
       9B2g    2.673523    22Ag     2.678081    16B3u    2.740931
      16B2u    2.740931    16B1u    2.752992     6Au     2.752992
      17B2u    2.760396    17B3u    2.760396    17B1u    2.762891
      23Ag     3.021761    18B2u    3.178974    18B3u    3.178974
       7Au     3.190166    18B1u    3.190166    19B3u    3.199023
      19B2u    3.199023    19B1u    3.205432     8Au     3.205432
      20B3u    3.209310    20B2u    3.209310    20B1u    3.210608
      10B1g    3.282084    24Ag     3.282084    10B2g    3.293611
      10B3g    3.293611    25Ag     3.301995    11B1g    3.301995
      11B2g    3.307086    11B3g    3.307086    26Ag     3.308794
      12B1g    6.993191    27Ag     6.993191    12B2g    7.001315
      12B3g    7.001315    28Ag     7.004093    21B3u    9.781453
      21B2u    9.781453    21B1u    9.785868    29Ag    24.818727

    Beta Occupied:

       1Ag   -58.497870     2Ag    -4.907317     1B2u   -3.216332
       1B3u   -3.216332     1B1u   -3.206991     3Ag    -0.363375

    Beta Virtual:

       2B3u    0.012908     2B2u    0.012908     2B1u    0.025060
       4Ag     0.036619     3B3u    0.047699     3B2u    0.047699
       3B1u    0.072968     1B1g    0.075806     5Ag     0.075806
       1B2g    0.081117     1B3g    0.081117     6Ag     0.083374
       4B2u    0.196304     4B3u    0.196304     5B2u    0.199799
       5B3u    0.199799     4B1u    0.206166     1Au     0.206166
       7Ag     0.210016     6B3u    0.210758     6B2u    0.210758
       5B1u    0.211234     6B1u    0.223470     2B1g    0.235585
       8Ag     0.235585     2B2g    0.253364     2B3g    0.253364
       9Ag     0.261548     3B1g    0.523237    10Ag     0.523237
       3B3g    0.532649     3B2g    0.532649    11Ag     0.539707
       4B1g    0.539707     4B3g    0.544126     4B2g    0.544126
      12Ag     0.545635    13Ag     0.566815     5B1g    0.566815
       7B2u    0.568665     7B3u    0.568665     2Au     0.584343
       7B1u    0.584343     5B2g    0.591563     5B3g    0.591563
       8B3u    0.593899     8B2u    0.593899     8B1u    0.597359
      14Ag     0.601172     9B2u    0.692116     9B3u    0.692116
       9B1u    0.724879    15Ag     0.784231    10B2u    1.295214
      10B3u    1.295214    16Ag     1.302584     6B1g    1.302584
      11B2u    1.306144    11B3u    1.306144     3Au     1.315748
      10B1u    1.315748    11B1u    1.318672     4Au     1.318672
       6B2g    1.326619     6B3g    1.326619    12B3u    1.327703
      12B2u    1.327703    13B2u    1.328945    13B3u    1.328945
      12B1u    1.331418    17Ag     1.335841    13B1u    1.336992
       5Au     1.336992    14B2u    1.342766    14B3u    1.342766
      14B1u    1.345089     7B1g    1.404778    18Ag     1.404778
       7B3g    1.421912     7B2g    1.421912     8B1g    1.434721
      19Ag     1.434721     8B2g    1.442699     8B3g    1.442699
      20Ag     1.445423    15B2u    2.457297    15B3u    2.457297
      15B1u    2.485694    21Ag     2.659243     9B1g    2.659243
       9B2g    2.680222     9B3g    2.680222    22Ag     2.686375
      16B2u    2.740294    16B3u    2.740294    16B1u    2.759723
       6Au     2.759723    17B3u    2.771789    17B2u    2.771789
      17B1u    2.775902    23Ag     3.028387    18B2u    3.178154
      18B3u    3.178154     7Au     3.193905    18B1u    3.193905
      19B2u    3.206443    19B3u    3.206443     8Au     3.215562
      19B1u    3.215562    20B3u    3.221100    20B2u    3.221100
      20B1u    3.222957    10B1g    3.281187    24Ag     3.281187
      10B3g    3.298664    10B2g    3.298664    11B1g    3.311468
      25Ag     3.311468    11B2g    3.319288    11B3g    3.319288
      26Ag     3.321920    12B1g    6.993507    27Ag     6.993507
      12B3g    7.005622    12B2g    7.005622    28Ag     7.009768
      21B2u    9.782753    21B3u    9.782753    21B1u    9.798239
      29Ag    24.821699

    Final Occupation by Irrep:
             Ag   B1g   B2g   B3g    Au   B1u   B2u   B3u
    DOCC [     3,    0,    0,    0,    0,    1,    1,    1 ]
    SOCC [     0,    0,    0,    0,    0,    1,    0,    0 ]

  Energy converged.

  @UHF Final Energy:  -241.88075599916158

   => Energetics <=

    Nuclear Repulsion Energy =              0.0000000000000000
    One-Electron Energy =                -336.6365668323968521
    Two-Electron Energy =                  94.7558108332352589
    Total Energy =                       -241.8807559991615790

  UHF NO Occupations:
  HONO-2 :    1B1u 1.9999965
  HONO-1 :    3 Ag 1.9896276
  HONO-0 :    2B1u 1.0000000
  LUNO+0 :    4 Ag 0.0103724
  LUNO+1 :    3B1u 0.0000035
  LUNO+2 :    2B3u 0.0000003
  LUNO+3 :    2B2u 0.0000003

Properties will be evaluated at   0.000000,   0.000000,   0.000000 Bohr

Properties computed using the SCF density matrix

  Nuclear Dipole Moment: (a.u.)
     X:     0.0000      Y:     0.0000      Z:     0.0000

  Electronic Dipole Moment: (a.u.)
     X:     0.0000      Y:     0.0000      Z:     0.0000

  Dipole Moment: (a.u.)
     X:     0.0000      Y:     0.0000      Z:     0.0000     Total:     0.0000

  Dipole Moment: (Debye)
     X:     0.0000      Y:     0.0000      Z:     0.0000     Total:     0.0000

*** tstop() called on cqc05 at Fri Aug 21 06:46:10 2020
Module time:
	user time   =       8.54 seconds =       0.14 minutes
	system time =       0.27 seconds =       0.00 minutes
	total time  =          8 seconds =       0.13 minutes
Total time:
	user time   =       8.54 seconds =       0.14 minutes
	system time =       0.27 seconds =       0.00 minutes
	total time  =          8 seconds =       0.13 minutes

*** tstart() called on cqc05
*** at Fri Aug 21 06:46:10 2020

	Wfn Parameters:
	--------------------
	Wavefunction         = CCSD
	Number of irreps     = 8
	Number of MOs        = 136
	Number of active MOs = 131
	AO-Basis             = NONE
	Semicanonical        = false
	Reference            = UHF
	Print Level          = 1

	IRREP	# MOs	# FZDC	# DOCC	# SOCC	# VIRT	# FZVR
	-----	-----	------	------	------	------	------
	 Ag	   29	    2	    1	    0	    26	    0
	 B1g	   12	    0	    0	    0	    12	    0
	 B2g	   12	    0	    0	    0	    12	    0
	 B3g	   12	    0	    0	    0	    12	    0
	 Au	   8	    0	    0	    0	    8	    0
	 B1u	   21	    1	    0	    1	    19	    0
	 B2u	   21	    1	    0	    0	    20	    0
	 B3u	   21	    1	    0	    0	    20	    0
	Transforming integrals...
	IWL integrals will be deleted.
	(OO|OO)...
	Presorting SO-basis two-electron integrals.
	Sorting File: SO Ints (nn|nn) nbuckets = 1
	Transforming the one-electron integrals and constructing Fock matrices
	Starting AA/AB first half-transformation.
	Sorting AA/AB half-transformed integrals.
	Starting BB first half-transformation.
	Sorting BB half-transformed integrals.
	First half integral transformation complete.
	Starting AA second half-transformation.
	Starting AB second half-transformation.
	Starting BB second half-transformation.
	Two-electron integral transformation complete.
	(OO|OV)...
	Starting AA second half-transformation.
	Starting AB second half-transformation.
	Starting BB second half-transformation.
	Two-electron integral transformation complete.
	(OO|VV)...
	Starting AA second half-transformation.
	Starting AB second half-transformation.
	Starting BB second half-transformation.
	Two-electron integral transformation complete.
	(OV|OO)...
	Starting AA/AB first half-transformation.
	Sorting AA/AB half-transformed integrals.
	Starting BB first half-transformation.
	Sorting BB half-transformed integrals.
	First half integral transformation complete.
	Starting AA second half-transformation.
	Starting AB second half-transformation.
	Starting BB second half-transformation.
	Two-electron integral transformation complete.
	(OV|OV)...
	Starting AA second half-transformation.
	Starting AB second half-transformation.
	Starting BB second half-transformation.
	Two-electron integral transformation complete.
	(OV|VV)...
	Starting AA second half-transformation.
	Starting AB second half-transformation.
	Starting BB second half-transformation.
	Two-electron integral transformation complete.
	(VV|OO)...
	Starting AA/AB first half-transformation.
	Sorting AA/AB half-transformed integrals.
	Starting BB first half-transformation.
	Sorting BB half-transformed integrals.
	First half integral transformation complete.
	Starting AA second half-transformation.
	Starting AB second half-transformation.
	Starting BB second half-transformation.
	Two-electron integral transformation complete.
	(VV|OV)...
	Starting AA second half-transformation.
	Starting AB second half-transformation.
	Starting BB second half-transformation.
	Two-electron integral transformation complete.
	(VV|VV)...
	Starting AA second half-transformation.
	Starting AB second half-transformation.
	Starting BB second half-transformation.
	Two-electron integral transformation complete.
	Frozen core energy     =   -239.99814376667865

	Size of irrep 0 of <AB|CD> integrals:      1.214 (MW) /      9.715 (MB)
	Size of irrep 1 of <AB|CD> integrals:      1.016 (MW) /      8.129 (MB)
	Size of irrep 2 of <AB|CD> integrals:      0.992 (MW) /      7.936 (MB)
	Size of irrep 3 of <AB|CD> integrals:      0.992 (MW) /      7.936 (MB)
	Size of irrep 4 of <AB|CD> integrals:      0.839 (MW) /      6.712 (MB)
	Size of irrep 5 of <AB|CD> integrals:      1.145 (MW) /      9.159 (MB)
	Size of irrep 6 of <AB|CD> integrals:      1.175 (MW) /      9.400 (MB)
	Size of irrep 7 of <AB|CD> integrals:      1.175 (MW) /      9.400 (MB)
	Total:                                     8.549 (MW) /     68.389 (MB)

	Size of irrep 0 of <ab|cd> integrals:      1.257 (MW) /     10.053 (MB)
	Size of irrep 1 of <ab|cd> integrals:      1.032 (MW) /      8.258 (MB)
	Size of irrep 2 of <ab|cd> integrals:      1.032 (MW) /      8.258 (MB)
	Size of irrep 3 of <ab|cd> integrals:      1.032 (MW) /      8.258 (MB)
	Size of irrep 4 of <ab|cd> integrals:      0.861 (MW) /      6.889 (MB)
	Size of irrep 5 of <ab|cd> integrals:      1.201 (MW) /      9.610 (MB)
	Size of irrep 6 of <ab|cd> integrals:      1.201 (MW) /      9.610 (MB)
	Size of irrep 7 of <ab|cd> integrals:      1.201 (MW) /      9.610 (MB)
	Total:                                     8.818 (MW) /     70.546 (MB)

	Size of irrep 0 of <Ab|Cd> integrals:      5.532 (MW) /     44.255 (MB)
	Size of irrep 1 of <Ab|Cd> integrals:      4.097 (MW) /     32.773 (MB)
	Size of irrep 2 of <Ab|Cd> integrals:      4.048 (MW) /     32.385 (MB)
	Size of irrep 3 of <Ab|Cd> integrals:      4.048 (MW) /     32.385 (MB)
	Size of irrep 4 of <Ab|Cd> integrals:      3.400 (MW) /     27.203 (MB)
	Size of irrep 5 of <Ab|Cd> integrals:      4.692 (MW) /     37.532 (MB)
	Size of irrep 6 of <Ab|Cd> integrals:      4.752 (MW) /     38.019 (MB)
	Size of irrep 7 of <Ab|Cd> integrals:      4.752 (MW) /     38.019 (MB)
	Total:                                    35.321 (MW) /    282.572 (MB)

	Size of irrep 0 of <IA|BC> integrals:      0.105 (MW) /      0.840 (MB)
	Size of irrep 1 of <IA|BC> integrals:      0.040 (MW) /      0.323 (MB)
	Size of irrep 2 of <IA|BC> integrals:      0.064 (MW) /      0.510 (MB)
	Size of irrep 3 of <IA|BC> integrals:      0.064 (MW) /      0.510 (MB)
	Size of irrep 4 of <IA|BC> integrals:      0.037 (MW) /      0.293 (MB)
	Size of irrep 5 of <IA|BC> integrals:      0.096 (MW) /      0.770 (MB)
	Size of irrep 6 of <IA|BC> integrals:      0.069 (MW) /      0.555 (MB)
	Size of irrep 7 of <IA|BC> integrals:      0.069 (MW) /      0.555 (MB)
	Total:                                     0.544 (MW) /      4.356 (MB)

	Size of irrep 0 of <ia|bc> integrals:      0.062 (MW) /      0.493 (MB)
	Size of irrep 1 of <ia|bc> integrals:      0.024 (MW) /      0.195 (MB)
	Size of irrep 2 of <ia|bc> integrals:      0.024 (MW) /      0.195 (MB)
	Size of irrep 3 of <ia|bc> integrals:      0.024 (MW) /      0.195 (MB)
	Size of irrep 4 of <ia|bc> integrals:      0.015 (MW) /      0.119 (MB)
	Size of irrep 5 of <ia|bc> integrals:      0.044 (MW) /      0.351 (MB)
	Size of irrep 6 of <ia|bc> integrals:      0.044 (MW) /      0.351 (MB)
	Size of irrep 7 of <ia|bc> integrals:      0.044 (MW) /      0.351 (MB)
	Total:                                     0.281 (MW) /      2.250 (MB)

	Size of irrep 0 of <Ia|Bc> integrals:      0.108 (MW) /      0.866 (MB)
	Size of irrep 1 of <Ia|Bc> integrals:      0.040 (MW) /      0.324 (MB)
	Size of irrep 2 of <Ia|Bc> integrals:      0.064 (MW) /      0.515 (MB)
	Size of irrep 3 of <Ia|Bc> integrals:      0.064 (MW) /      0.515 (MB)
	Size of irrep 4 of <Ia|Bc> integrals:      0.037 (MW) /      0.295 (MB)
	Size of irrep 5 of <Ia|Bc> integrals:      0.100 (MW) /      0.797 (MB)
	Size of irrep 6 of <Ia|Bc> integrals:      0.070 (MW) /      0.558 (MB)
	Size of irrep 7 of <Ia|Bc> integrals:      0.070 (MW) /      0.558 (MB)
	Total:                                     0.553 (MW) /      4.428 (MB)

	Size of irrep 0 of <iA|bC> integrals:      0.061 (MW) /      0.489 (MB)
	Size of irrep 1 of <iA|bC> integrals:      0.024 (MW) /      0.194 (MB)
	Size of irrep 2 of <iA|bC> integrals:      0.024 (MW) /      0.193 (MB)
	Size of irrep 3 of <iA|bC> integrals:      0.024 (MW) /      0.193 (MB)
	Size of irrep 4 of <iA|bC> integrals:      0.015 (MW) /      0.118 (MB)
	Size of irrep 5 of <iA|bC> integrals:      0.041 (MW) /      0.329 (MB)
	Size of irrep 6 of <iA|bC> integrals:      0.044 (MW) /      0.349 (MB)
	Size of irrep 7 of <iA|bC> integrals:      0.044 (MW) /      0.349 (MB)
	Total:                                     0.277 (MW) /      2.215 (MB)

	Size of irrep 0 of tIjAb amplitudes:       0.002 (MW) /      0.019 (MB)
	Size of irrep 1 of tIjAb amplitudes:       0.000 (MW) /      0.000 (MB)
	Size of irrep 2 of tIjAb amplitudes:       0.000 (MW) /      0.000 (MB)
	Size of irrep 3 of tIjAb amplitudes:       0.000 (MW) /      0.000 (MB)
	Size of irrep 4 of tIjAb amplitudes:       0.000 (MW) /      0.000 (MB)
	Size of irrep 5 of tIjAb amplitudes:       0.002 (MW) /      0.017 (MB)
	Size of irrep 6 of tIjAb amplitudes:       0.000 (MW) /      0.000 (MB)
	Size of irrep 7 of tIjAb amplitudes:       0.000 (MW) /      0.000 (MB)
	Total:                                     0.005 (MW) /      0.036 (MB)

	Nuclear Rep. energy          =      0.00000000000000
	SCF energy                   =   -241.88075599916158
	One-electron energy          =     -2.75778743367706
	Two-electron (AA) energy     =      0.23130675035118
	Two-electron (BB) energy     =      0.00000000000000
	Two-electron (AB) energy     =      0.64386845084300
	Two-electron energy          =      0.87517520119419
	Reference energy             =   -241.88075599916152

*** tstop() called on cqc05 at Fri Aug 21 06:46:14 2020
Module time:
	user time   =       2.84 seconds =       0.05 minutes
	system time =       1.46 seconds =       0.02 minutes
	total time  =          4 seconds =       0.07 minutes
Total time:
	user time   =      11.38 seconds =       0.19 minutes
	system time =       1.73 seconds =       0.03 minutes
	total time  =         12 seconds =       0.20 minutes

*** tstart() called on cqc05
*** at Fri Aug 21 06:46:14 2020

            **************************
            *                        *
            *        CCENERGY        *
            *                        *
            **************************

    Nuclear Rep. energy (wfn)     =    0.000000000000000
    SCF energy          (wfn)     = -241.880755999161579
    Reference energy    (file100) = -241.880755999161522

    Input parameters:
    -----------------
    Wave function   =     CCSD
    Reference wfn   =     UHF
    Brueckner       =     No
    Memory (Mbytes) =     250000.0
    Maxiter         =     50
    R_Convergence   =     1.0e-07
    E_Convergence   =     1.0e-06
    Restart         =     Yes
    DIIS            =     Yes
    AO Basis        =     NONE
    ABCD            =     NEW
    Cache Level     =     2
    Cache Type      =     LRU
    Print Level     =     1
    Num. of threads =     4
    # Amps to Print =     10
    Print MP2 Amps? =     No
    Analyze T2 Amps =     No
    Print Pair Ener =     No
    Local CC        =     No
    SCS-MP2         =     False
    SCSN-MP2        =     False
    SCS-CCSD        =     False

MP2 correlation energy -0.0392331223782801
                Solving CC Amplitude Equations
                ------------------------------
  Iter             Energy              RMS        T1Diag      D1Diag    New D1Diag    D2Diag
  ----     ---------------------    ---------   ----------  ----------  ----------   --------
     0        -0.039233122378282    0.000e+00    0.000000    0.000000    0.000000    0.000000
     1        -0.046357732784040    5.865e-02    0.013520    0.000000    0.000000    0.000000
     2        -0.052302974885957    2.831e-02    0.025325    0.000000    0.000000    0.000000

      * MP2 total energy                      = -241.919989121539800
      * CCSD total energy                     = -241.933246309779122
*** Psi4 exiting successfully. Buy a developer a beer!
