                               Psi4 1.2a1.dev938

  ==> Input File <==

--------------------------------------------------------------------------
# Any line starting with the # character is a comment line
memory 250000 mb
molecule molecule{
0 2
Al          0.0000000000        0.0000000000        0.0000000000
}

set {
  reference uhf
  basis aug-cc-pv(6+d)z
  scf_type OUT_OF_CORE
  freeze_core true
}

energy('ccsd')
--------------------------------------------------------------------------

    Molecular point group: d2h
    Geometry (in Angstrom), charge = 0, multiplicity = 2:

       Center              X                  Y                   Z               Mass
    ------------   -----------------  -----------------  -----------------  -----------------
          AL          0.000000000000     0.000000000000     0.000000000000    26.981538627000

  Charge       = 0
  Multiplicity = 2
  Basis Set: AUG-CC-PV(6+D)Z
    Blend: AUG-CC-PV(6+D)Z

    Orbital Energies (a.u.)
    -----------------------

    Alpha Occupied:

       1Ag   -58.500926     2Ag    -4.910706     1B1u   -3.225285
       1B2u   -3.217824     1B3u   -3.217824     3Ag    -0.425518
       2B1u   -0.218555

    Alpha Virtual:

       2B3u    0.008825     2B2u    0.008825     3B1u    0.027605
       4Ag     0.032699     3B2u    0.037549     3B3u    0.037549
       5Ag     0.070333     1B1g    0.070333     1B3g    0.071749
       1B2g    0.071749     6Ag     0.072497     4B1u    0.133275
       4B2u    0.148921     4B3u    0.148921     5B3u    0.180691
       5B2u    0.180691     1Au     0.184389     5B1u    0.184389
       6B2u    0.186906     6B3u    0.186906     6B1u    0.187655
       7Ag     0.189270     8Ag     0.207882     2B3g    0.209192
       2B2g    0.209192     2B1g    0.216441     9Ag     0.216441
       3B1g    0.415803    10Ag     0.415803     3B2g    0.421088
       3B3g    0.421088    11Ag     0.424887     4B1g    0.424887
       4B3g    0.427128     4B2g    0.427128    12Ag     0.427867
       7B1u    0.455939     7B2u    0.464681     7B3u    0.464681
       8B2u    0.509859     8B3u    0.509859    13Ag     0.511807
       5B3g    0.512728     5B2g    0.512728     2Au     0.515012
       8B1u    0.515012     5B1g    0.516989    14Ag     0.516989
       9B2u    0.518449     9B3u    0.518449     9B1u    0.519522
      15Ag     0.694283    10B2u    0.945183    10B3u    0.945183
      10B1u    0.952469     3Au     0.952469    11B2u    0.958256
      11B3u    0.958256    11B1u    0.962453     4Au     0.962453
      12B2u    0.964996    12B3u    0.964996    12B1u    0.965848
       6B1g    1.092749    16Ag     1.092749     6B3g    1.101490
       6B2g    1.101490    17Ag     1.107313     7B1g    1.107313
       7B3g    1.110713     7B2g    1.110713    18Ag     1.111836
      13B3u    1.133711    13B2u    1.133711    13B1u    1.141823
       5Au     1.141823    14B2u    1.146468    14B3u    1.146468
      14B1u    1.147975     8B1g    1.149331    19Ag     1.149331
       8B3g    1.159113     8B2g    1.159113    20Ag     1.162479
      15B2u    1.327476    15B3u    1.327476    15B1u    1.334314
      21Ag     1.985403     9B1g    1.985403     9B2g    1.994421
       9B3g    1.994421    10B1g    2.001938    22Ag     2.001938
      10B3g    2.007872    10B2g    2.007872    23Ag     2.012158
      11B1g    2.012158    11B3g    2.014749    11B2g    2.014749
      24Ag     2.015616    16B2u    2.255698    16B3u    2.255698
      16B1u    2.266332     6Au     2.266332    25Ag     2.267465
      17B2u    2.274739    17B3u    2.274739    17B1u    2.280817
       7Au     2.280817    18B2u    2.284493    18B3u    2.284493
      18B1u    2.285723    12B1g    2.341533    26Ag     2.341533
      12B3g    2.353066    12B2g    2.353066    19B3u    2.360749
      19B2u    2.360749    27Ag     2.361124    13B1g    2.361124
      13B3g    2.365918    13B2g    2.365918    28Ag     2.367518
      19B1u    2.372940     8Au     2.372940    20B2u    2.380386
      20B3u    2.380386    20B1u    2.382888    29Ag     2.495525
      14B1g    2.495525    14B3g    2.510967    14B2g    2.510967
      30Ag     2.516948    21B2u    3.631806    21B3u    3.631806
      21B1u    3.645033    15B1g    4.477029    31Ag     4.477029
      15B3g    4.487802    15B2g    4.487802    16B1g    4.496755
      32Ag     4.496755    16B3g    4.503807    16B2g    4.503807
      33Ag     4.508890    17B1g    4.508890    17B3g    4.511959
      17B2g    4.511959    34Ag     4.512986    18B1g    4.739845
      35Ag     4.739845    18B2g    4.751582    18B3g    4.751582
      36Ag     4.759489    19B1g    4.759489    19B3g    4.764180
      19B2g    4.764180    37Ag     4.765741    22B3u    4.813222
      22B2u    4.813222    38Ag     4.820963    20B1g    4.820963
      22B1u    4.825654     9Au     4.825654    23B2u    4.833299
      23B3u    4.833299    20B3g    4.835365    20B2g    4.835365
      23B1u    4.835880    39Ag     4.840284    24B2u    4.876397
      24B3u    4.876397    10Au     4.887635    24B1u    4.887635
      25B3u    4.896527    25B2u    4.896527    25B1u    4.902962
      11Au     4.902962    26B2u    4.906858    26B3u    4.906858
      26B1u    4.908162    40Ag     7.392452    27B2u   10.558192
      27B3u   10.558192    27B1u   10.566070    41Ag    11.969209
      21B1g   11.969209    21B3g   11.974959    21B2g   11.974959
      42Ag    11.976942    43Ag   154.178658

    Beta Occupied:

       1Ag   -58.497809     2Ag    -4.907276     1B3u   -3.216292
       1B2u   -3.216292     1B1u   -3.206991     3Ag    -0.363342

    Beta Virtual:

       2B2u    0.012161     2B3u    0.012161     2B1u    0.022267
       4Ag     0.035134     3B3u    0.040643     3B2u    0.040643
       3B1u    0.064338     5Ag     0.070606     1B1g    0.070606
       1B3g    0.075338     1B2g    0.075338     6Ag     0.077378
       4B2u    0.151429     4B3u    0.151429     4B1u    0.174254
       5B3u    0.180902     5B2u    0.180902     5B1u    0.186447
       1Au     0.186447     6B2u    0.190091     6B3u    0.190091
       6B1u    0.191422     7Ag     0.196685     8Ag     0.217627
       2B1g    0.217627     2B3g    0.233878     2B2g    0.233878
       9Ag     0.241636    10Ag     0.415978     3B1g    0.415978
       3B2g    0.423222     3B3g    0.423222    11Ag     0.428671
       4B1g    0.428671     4B3g    0.432099     4B2g    0.432099
      12Ag     0.433276     7B2u    0.467521     7B3u    0.467521
       7B1u    0.495846     8B3u    0.510240     8B2u    0.510240
      13Ag     0.517566     5B1g    0.517566     8B1u    0.524390
       2Au     0.524390     9B2u    0.533751     9B3u    0.533751
       9B1u    0.537304     5B3g    0.541811     5B2g    0.541811
      14Ag     0.551141    15Ag     0.704790    10B3u    0.945210
      10B2u    0.945210    10B1u    0.954888     3Au     0.954888
      11B2u    0.962679    11B3u    0.962679    11B1u    0.968398
       4Au     0.968398    12B2u    0.971897    12B3u    0.971897
      12B1u    0.973075     6B1g    1.092651    16Ag     1.092651
       6B2g    1.107292     6B3g    1.107292    17Ag     1.117338
       7B1g    1.117338     7B3g    1.123792     7B2g    1.123792
      18Ag     1.126007    13B3u    1.133547    13B2u    1.133547
       8B1g    1.149871    19Ag     1.149871    13B1u    1.153696
       5Au     1.153696    14B2u    1.166046    14B3u    1.166046
      14B1u    1.170316     8B3g    1.173772     8B2g    1.173772
      20Ag     1.183024    15B2u    1.330204    15B3u    1.330204
      15B1u    1.363319    21Ag     1.985129     9B1g    1.985129
       9B2g    1.996656     9B3g    1.996656    10B1g    2.006314
      22Ag     2.006314    10B3g    2.013972    10B2g    2.013972
      23Ag     2.019525    11B1g    2.019525    11B3g    2.022889
      11B2g    2.022889    24Ag     2.024017    16B2u    2.255203
      16B3u    2.255203    16B1u    2.270119     6Au     2.270119
      25Ag     2.273282    17B3u    2.282031    17B2u    2.282031
      17B1u    2.290718     7Au     2.290718    18B2u    2.296005
      18B3u    2.296005    18B1u    2.297780    12B1g    2.340910
      26Ag     2.340910    12B3g    2.358941    12B2g    2.358941
      19B3u    2.360206    19B2u    2.360206    27Ag     2.371445
      13B1g    2.371445    13B3g    2.378917    13B2g    2.378917
      19B1u    2.380917     8Au     2.380917    28Ag     2.381447
      20B2u    2.393743    20B3u    2.393743    20B1u    2.398100
      29Ag     2.496232    14B1g    2.496232    14B3g    2.519224
      14B2g    2.519224    30Ag     2.529095    21B2u    3.633385
      21B3u    3.633385    21B1u    3.660985    31Ag     4.476260
      15B1g    4.476260    15B3g    4.489933    15B2g    4.489933
      16B1g    4.501314    32Ag     4.501314    16B3g    4.510289
      16B2g    4.510289    33Ag     4.516768    17B1g    4.516768
      17B3g    4.520683    17B2g    4.520683    34Ag     4.521993
      18B1g    4.739102    35Ag     4.739102    18B2g    4.754822
      18B3g    4.754822    36Ag     4.764903    19B1g    4.764903
      19B3g    4.770936    19B2g    4.770936    37Ag     4.772953
      22B3u    4.812781    22B2u    4.812781    38Ag     4.821982
      20B1g    4.821982    22B1u    4.828763     9Au     4.828763
      23B2u    4.838636    23B3u    4.838636    20B3g    4.841630
      20B2g    4.841630    23B1u    4.841981    39Ag     4.848346
      24B2u    4.875540    24B3u    4.875540    24B1u    4.890321
      10Au     4.890321    25B3u    4.902042    25B2u    4.902042
      25B1u    4.910540    11Au     4.910540    26B2u    4.915692
      26B3u    4.915692    26B1u    4.917418    40Ag     7.395903
      27B3u   10.559322    27B2u   10.559322    27B1u   10.576306
      41Ag    11.969734    21B1g   11.969734    21B2g   11.979757
      21B3g   11.979757    42Ag    11.983182    43Ag   154.179731

    Final Occupation by Irrep:
             Ag   B1g   B2g   B3g    Au   B1u   B2u   B3u
    DOCC [     3,    0,    0,    0,    0,    1,    1,    1 ]
    SOCC [     0,    0,    0,    0,    0,    1,    0,    0 ]

  Energy converged.

  @UHF Final Energy:  -241.88080665553477

   => Energetics <=

    Nuclear Repulsion Energy =              0.0000000000000000
    One-Electron Energy =                -336.6369750799680105
    Two-Electron Energy =                  94.7561684244332412
    PCM Polarization Energy =               0.0000000000000000
    Total Energy =                       -241.8808066555347693

    Alert: EFP and PCM quantities not currently incorporated into SCF psivars.
  UHF NO Occupations:
  HONO-2 :    1B1u 1.9999964
  HONO-1 :    3 Ag 1.9896171
  HONO-0 :    2B1u 1.0000000
  LUNO+0 :    4 Ag 0.0103829
  LUNO+1 :    3B1u 0.0000036
  LUNO+2 :    2B2u 0.0000003
  LUNO+3 :    2B3u 0.0000003

Properties will be evaluated at   0.000000,   0.000000,   0.000000 Bohr

Properties computed using the SCF density matrix

  Nuclear Dipole Moment: (a.u.)
     X:     0.0000      Y:     0.0000      Z:     0.0000

  Electronic Dipole Moment: (a.u.)
     X:     0.0000      Y:     0.0000      Z:     0.0000

  Dipole Moment: (a.u.)
     X:     0.0000      Y:     0.0000      Z:     0.0000     Total:     0.0000

  Dipole Moment: (Debye)
     X:     0.0000      Y:     0.0000      Z:     0.0000     Total:     0.0000

*** tstop() called on cqc05 at Wed Aug 26 09:14:59 2020
Module time:
	user time   =      46.25 seconds =       0.77 minutes
	system time =       0.93 seconds =       0.02 minutes
	total time  =         47 seconds =       0.78 minutes
Total time:
	user time   =      46.25 seconds =       0.77 minutes
	system time =       0.93 seconds =       0.02 minutes
	total time  =         47 seconds =       0.78 minutes

*** tstart() called on cqc05
*** at Wed Aug 26 09:14:59 2020

	Wfn Parameters:
	--------------------
	Wavefunction         = CCSD
	Number of irreps     = 8
	Number of MOs        = 198
	Number of active MOs = 193
	AO-Basis             = NONE
	Semicanonical        = false
	Reference            = UHF
	Print Level          = 1

	IRREP	# MOs	# FZDC	# DOCC	# SOCC	# VIRT	# FZVR
	-----	-----	------	------	------	------	------
	 Ag	   43	    2	    1	    0	    40	    0
	 B1g	   21	    0	    0	    0	    21	    0
	 B2g	   21	    0	    0	    0	    21	    0
	 B3g	   21	    0	    0	    0	    21	    0
	 Au	   11	    0	    0	    0	    11	    0
	 B1u	   27	    1	    0	    1	    25	    0
	 B2u	   27	    1	    0	    0	    26	    0
	 B3u	   27	    1	    0	    0	    26	    0
	Transforming integrals...
	IWL integrals will be deleted.
	(OO|OO)...
	Presorting SO-basis two-electron integrals.
	Sorting File: SO Ints (nn|nn) nbuckets = 1
	Transforming the one-electron integrals and constructing Fock matrices
	Starting AA/AB first half-transformation.
	Sorting AA/AB half-transformed integrals.
	Starting BB first half-transformation.
	Sorting BB half-transformed integrals.
	First half integral transformation complete.
	Starting AA second half-transformation.
	Starting AB second half-transformation.
	Starting BB second half-transformation.
	Two-electron integral transformation complete.
	(OO|OV)...
	Starting AA second half-transformation.
	Starting AB second half-transformation.
	Starting BB second half-transformation.
	Two-electron integral transformation complete.
	(OO|VV)...
	Starting AA second half-transformation.
	Starting AB second half-transformation.
	Starting BB second half-transformation.
	Two-electron integral transformation complete.
	(OV|OO)...
	Starting AA/AB first half-transformation.
	Sorting AA/AB half-transformed integrals.
	Starting BB first half-transformation.
	Sorting BB half-transformed integrals.
	First half integral transformation complete.
	Starting AA second half-transformation.
	Starting AB second half-transformation.
	Starting BB second half-transformation.
	Two-electron integral transformation complete.
	(OV|OV)...
	Starting AA second half-transformation.
	Starting AB second half-transformation.
	Starting BB second half-transformation.
	Two-electron integral transformation complete.
	(OV|VV)...
	Starting AA second half-transformation.
	Starting AB second half-transformation.
	Starting BB second half-transformation.
	Two-electron integral transformation complete.
	(VV|OO)...
	Starting AA/AB first half-transformation.
	Sorting AA/AB half-transformed integrals.
	Starting BB first half-transformation.
	Sorting BB half-transformed integrals.
	First half integral transformation complete.
	Starting AA second half-transformation.
	Starting AB second half-transformation.
	Starting BB second half-transformation.
	Two-electron integral transformation complete.
	(VV|OV)...
	Starting AA second half-transformation.
	Starting AB second half-transformation.
	Starting BB second half-transformation.
	Two-electron integral transformation complete.
	(VV|VV)...
	Starting AA second half-transformation.
	Starting AB second half-transformation.
	Starting BB second half-transformation.
	Two-electron integral transformation complete.
	Frozen core energy     =   -239.99817166101258

	Size of irrep 0 of <AB|CD> integrals:      5.832 (MW) /     46.658 (MB)
	Size of irrep 1 of <AB|CD> integrals:      4.982 (MW) /     39.855 (MB)
	Size of irrep 2 of <AB|CD> integrals:      4.915 (MW) /     39.321 (MB)
	Size of irrep 3 of <AB|CD> integrals:      4.915 (MW) /     39.321 (MB)
	Size of irrep 4 of <AB|CD> integrals:      4.231 (MW) /     33.850 (MB)
	Size of irrep 5 of <AB|CD> integrals:      5.396 (MW) /     43.171 (MB)
	Size of irrep 6 of <AB|CD> integrals:      5.485 (MW) /     43.880 (MB)
	Size of irrep 7 of <AB|CD> integrals:      5.485 (MW) /     43.880 (MB)
	Total:                                    41.242 (MW) /    329.934 (MB)

	Size of irrep 0 of <ab|cd> integrals:      5.954 (MW) /     47.629 (MB)
	Size of irrep 1 of <ab|cd> integrals:      5.031 (MW) /     40.248 (MB)
	Size of irrep 2 of <ab|cd> integrals:      5.031 (MW) /     40.248 (MB)
	Size of irrep 3 of <ab|cd> integrals:      5.031 (MW) /     40.248 (MB)
	Size of irrep 4 of <ab|cd> integrals:      4.318 (MW) /     34.545 (MB)
	Size of irrep 5 of <ab|cd> integrals:      5.584 (MW) /     44.670 (MB)
	Size of irrep 6 of <ab|cd> integrals:      5.584 (MW) /     44.670 (MB)
	Size of irrep 7 of <ab|cd> integrals:      5.584 (MW) /     44.670 (MB)
	Total:                                    42.116 (MW) /    336.929 (MB)

	Size of irrep 0 of <Ab|Cd> integrals:     25.462 (MW) /    203.697 (MB)
	Size of irrep 1 of <Ab|Cd> integrals:     20.026 (MW) /    160.205 (MB)
	Size of irrep 2 of <Ab|Cd> integrals:     19.892 (MW) /    159.133 (MB)
	Size of irrep 3 of <Ab|Cd> integrals:     19.892 (MW) /    159.133 (MB)
	Size of irrep 4 of <Ab|Cd> integrals:     17.098 (MW) /    136.786 (MB)
	Size of irrep 5 of <Ab|Cd> integrals:     21.959 (MW) /    175.669 (MB)
	Size of irrep 6 of <Ab|Cd> integrals:     22.137 (MW) /    177.096 (MB)
	Size of irrep 7 of <Ab|Cd> integrals:     22.137 (MW) /    177.096 (MB)
	Total:                                   168.602 (MW) /   1348.814 (MB)

	Size of irrep 0 of <IA|BC> integrals:      0.326 (MW) /      2.611 (MB)
	Size of irrep 1 of <IA|BC> integrals:      0.143 (MW) /      1.143 (MB)
	Size of irrep 2 of <IA|BC> integrals:      0.208 (MW) /      1.667 (MB)
	Size of irrep 3 of <IA|BC> integrals:      0.208 (MW) /      1.667 (MB)
	Size of irrep 4 of <IA|BC> integrals:      0.132 (MW) /      1.053 (MB)
	Size of irrep 5 of <IA|BC> integrals:      0.302 (MW) /      2.416 (MB)
	Size of irrep 6 of <IA|BC> integrals:      0.220 (MW) /      1.761 (MB)
	Size of irrep 7 of <IA|BC> integrals:      0.220 (MW) /      1.761 (MB)
	Total:                                     1.760 (MW) /     14.080 (MB)

	Size of irrep 0 of <ia|bc> integrals:      0.203 (MW) /      1.623 (MB)
	Size of irrep 1 of <ia|bc> integrals:      0.094 (MW) /      0.754 (MB)
	Size of irrep 2 of <ia|bc> integrals:      0.094 (MW) /      0.754 (MB)
	Size of irrep 3 of <ia|bc> integrals:      0.094 (MW) /      0.754 (MB)
	Size of irrep 4 of <ia|bc> integrals:      0.046 (MW) /      0.366 (MB)
	Size of irrep 5 of <ia|bc> integrals:      0.123 (MW) /      0.983 (MB)
	Size of irrep 6 of <ia|bc> integrals:      0.123 (MW) /      0.983 (MB)
	Size of irrep 7 of <ia|bc> integrals:      0.123 (MW) /      0.983 (MB)
	Total:                                     0.900 (MW) /      7.199 (MB)

	Size of irrep 0 of <Ia|Bc> integrals:      0.333 (MW) /      2.664 (MB)
	Size of irrep 1 of <Ia|Bc> integrals:      0.143 (MW) /      1.146 (MB)
	Size of irrep 2 of <Ia|Bc> integrals:      0.210 (MW) /      1.677 (MB)
	Size of irrep 3 of <Ia|Bc> integrals:      0.210 (MW) /      1.677 (MB)
	Size of irrep 4 of <Ia|Bc> integrals:      0.132 (MW) /      1.059 (MB)
	Size of irrep 5 of <Ia|Bc> integrals:      0.309 (MW) /      2.474 (MB)
	Size of irrep 6 of <Ia|Bc> integrals:      0.221 (MW) /      1.769 (MB)
	Size of irrep 7 of <Ia|Bc> integrals:      0.221 (MW) /      1.769 (MB)
	Total:                                     1.779 (MW) /     14.235 (MB)

	Size of irrep 0 of <iA|bC> integrals:      0.202 (MW) /      1.615 (MB)
	Size of irrep 1 of <iA|bC> integrals:      0.094 (MW) /      0.752 (MB)
	Size of irrep 2 of <iA|bC> integrals:      0.094 (MW) /      0.749 (MB)
	Size of irrep 3 of <iA|bC> integrals:      0.094 (MW) /      0.749 (MB)
	Size of irrep 4 of <iA|bC> integrals:      0.045 (MW) /      0.364 (MB)
	Size of irrep 5 of <iA|bC> integrals:      0.117 (MW) /      0.937 (MB)
	Size of irrep 6 of <iA|bC> integrals:      0.122 (MW) /      0.979 (MB)
	Size of irrep 7 of <iA|bC> integrals:      0.122 (MW) /      0.979 (MB)
	Total:                                     0.890 (MW) /      7.123 (MB)

	Size of irrep 0 of tIjAb amplitudes:       0.005 (MW) /      0.040 (MB)
	Size of irrep 1 of tIjAb amplitudes:       0.000 (MW) /      0.000 (MB)
	Size of irrep 2 of tIjAb amplitudes:       0.000 (MW) /      0.000 (MB)
	Size of irrep 3 of tIjAb amplitudes:       0.000 (MW) /      0.000 (MB)
	Size of irrep 4 of tIjAb amplitudes:       0.000 (MW) /      0.000 (MB)
	Size of irrep 5 of tIjAb amplitudes:       0.005 (MW) /      0.037 (MB)
	Size of irrep 6 of tIjAb amplitudes:       0.000 (MW) /      0.000 (MB)
	Size of irrep 7 of tIjAb amplitudes:       0.000 (MW) /      0.000 (MB)
	Total:                                     0.010 (MW) /      0.078 (MB)

	Nuclear Rep. energy          =      0.00000000000000
	SCF energy                   =   -241.88080665553477
	One-electron energy          =     -2.75785481089642
	Two-electron (AA) energy     =      0.23132436538386
	Two-electron (BB) energy     =      0.00000000000000
	Two-electron (AB) energy     =      0.64389545099011
	Two-electron energy          =      0.87521981637397
	Reference energy             =   -241.88080665553503

*** tstop() called on cqc05 at Wed Aug 26 09:15:20 2020
Module time:
	user time   =      13.79 seconds =       0.23 minutes
	system time =       6.86 seconds =       0.11 minutes
	total time  =         21 seconds =       0.35 minutes
Total time:
	user time   =      60.04 seconds =       1.00 minutes
	system time =       7.79 seconds =       0.13 minutes
	total time  =         68 seconds =       1.13 minutes

*** tstart() called on cqc05
*** at Wed Aug 26 09:15:20 2020

            **************************
            *                        *

      * MP2 total energy                      = -241.920498344426250
      * CCSD total energy                     = -241.933432028277537
*** Psi4 exiting successfully. Buy a developer a beer!
