                               Psi4 1.2a1.dev938

  ==> Input File <==

--------------------------------------------------------------------------
# Any line starting with the # character is a comment line
memory 250000 mb
molecule molecule{
0 2
Al          0.0000000000        0.0000000000        0.0000000000
}

set {
  reference uhf
  basis aug-cc-pv(q+d)z
  scf_type OUT_OF_CORE
  freeze_core true
}

energy('ccsd')
--------------------------------------------------------------------------

    Molecular point group: d2h
    Geometry (in Angstrom), charge = 0, multiplicity = 2:

       Center              X                  Y                   Z               Mass
    ------------   -----------------  -----------------  -----------------  -----------------
          AL          0.000000000000     0.000000000000     0.000000000000    26.981538627000

  Charge       = 0
  Multiplicity = 2
  Basis Set: AUG-CC-PV(Q+D)Z
    Blend: AUG-CC-PV(Q+D)Z

    Orbital Energies (a.u.)
    -----------------------

    Alpha Occupied:

       1Ag   -58.500845     2Ag    -4.910768     1B2u   -3.224094
       1B3u   -3.218092     1B1u   -3.218092     3Ag    -0.425555
       2B2u   -0.218434

    Alpha Virtual:

       2B3u    0.009419     2B1u    0.009419     3B2u    0.035340
       4Ag     0.036300     3B3u    0.047833     3B1u    0.047833
       5Ag     0.081487     1B2g    0.081487     1B3g    0.082491
       1B1g    0.082491     6Ag     0.083145     4B2u    0.197710
       4B1u    0.216474     4B3u    0.216474     7Ag     0.221634
       5B1u    0.232064     5B3u    0.232064     5B2u    0.236468
       1Au     0.236468     6B3u    0.239922     6B1u    0.239922
       6B2u    0.240576     8Ag     0.242985     2B3g    0.244824
       2B1g    0.244824     2B2g    0.254072     9Ag     0.254072
      10Ag     0.636835     3B3g    0.637068     3B1g    0.637068
       3B2g    0.638678    11Ag     0.638678     7B1u    0.693702
       7B3u    0.693702     7B2u    0.699360     2Au     0.699360
       8B3u    0.702347     8B1u    0.702347     8B2u    0.703262
      12Ag     0.747293     4B2g    0.747293     4B3g    0.755059
       4B1g    0.755059    13Ag     0.760667     5B2g    0.760667
       5B1g    0.764055     5B3g    0.764055    14Ag     0.765187
       9B2u    0.819043     9B3u    0.825086     9B1u    0.825086
      15Ag     0.870630     6B2g    1.490503    16Ag     1.490503
       6B1g    1.501996     6B3g    1.501996    17Ag     1.505943
      10B3u    1.799931    10B1u    1.799931     3Au     1.809586
      10B2u    1.809586    11B3u    1.815413    11B1u    1.815413
      11B2u    1.817358     7B2g    2.038427    18Ag     2.038427
       7B1g    2.049104     7B3g    2.049104    19Ag     2.056830
       8B2g    2.056830     8B1g    2.061502     8B3g    2.061502
      20Ag     2.063065    21Ag     4.696574     9B2g    4.696574
       9B1g    4.705796     9B3g    4.705796    22Ag     4.708875
      23Ag     6.119095    12B1u    7.896463    12B3u    7.896463
      12B2u    7.912074

    Beta Occupied:

       1Ag   -58.498277     2Ag    -4.907476     1B1u   -3.216781
       1B3u   -3.216781     1B2u   -3.207335     3Ag    -0.363470

    Beta Virtual:

       2B3u    0.013211     2B1u    0.013211     2B2u    0.026279
       4Ag     0.039144     3B3u    0.051041     3B1u    0.051041
       3B2u    0.076920     1B2g    0.081898     5Ag     0.081898
       1B1g    0.087909     1B3g    0.087909     6Ag     0.090448
       4B3u    0.219772     4B1u    0.219772     7Ag     0.230531
       5B1u    0.232422     5B3u    0.232422     4B2u    0.240327
       1Au     0.240327     5B2u    0.244669     6B3u    0.245778
       6B1u    0.245778     6B2u    0.250542     2B2g    0.255414
       8Ag     0.255414     2B1g    0.274881     2B3g    0.274881
       9Ag     0.283707     3B2g    0.639141    10Ag     0.639141
       3B1g    0.665182     3B3g    0.665182    11Ag     0.675323
       7B1u    0.694037     7B3u    0.694037     7B2u    0.713066
       2Au     0.713066     8B3u    0.724802     8B1u    0.724802
       8B2u    0.728995    12Ag     0.747438     4B2g    0.747438
       4B3g    0.760582     4B1g    0.760582    13Ag     0.770369
       5B2g    0.770369     5B1g    0.776443     5B3g    0.776443
      14Ag     0.778510     9B3u    0.828012     9B1u    0.828012
       9B2u    0.860291    15Ag     0.881026     6B2g    1.490684
      16Ag     1.490684     6B1g    1.513616     6B3g    1.513616
      17Ag     1.522320    10B1u    1.799197    10B3u    1.799197
       3Au     1.820902    10B2u    1.820902    11B3u    1.834457
      11B1u    1.834457    11B2u    1.839088     7B2g    2.037641
      18Ag     2.037641     7B3g    2.056250     7B1g    2.056250
      19Ag     2.069921     8B2g    2.069921     8B1g    2.078288
       8B3g    2.078288    20Ag     2.081107    21Ag     4.696789
       9B2g    4.696789     9B3g    4.709997     9B1g    4.709997
      22Ag     4.714415    23Ag     6.123683    12B1u    7.898147
      12B3u    7.898147    12B2u    7.925448

    Final Occupation by Irrep:
             Ag   B1g   B2g   B3g    Au   B1u   B2u   B3u
    DOCC [     3,    0,    0,    0,    0,    1,    1,    1 ]
    SOCC [     0,    0,    0,    0,    0,    0,    1,    0 ]

  Energy converged.

  @UHF Final Energy:  -241.88044864142933

   => Energetics <=

    Nuclear Repulsion Energy =              0.0000000000000000
    One-Electron Energy =                -336.6348973612185773
    Two-Electron Energy =                  94.7544487197892238
    PCM Polarization Energy =               0.0000000000000000
    Total Energy =                       -241.8804486414293535

    Alert: EFP and PCM quantities not currently incorporated into SCF psivars.
  UHF NO Occupations:
  HONO-2 :    1B2u 1.9999987
  HONO-1 :    3 Ag 1.9896479
  HONO-0 :    2B2u 1.0000000
  LUNO+0 :    4 Ag 0.0103521
  LUNO+1 :    3B2u 0.0000013
  LUNO+2 :    2B3u 0.0000003
  LUNO+3 :    2B1u 0.0000003

Properties will be evaluated at   0.000000,   0.000000,   0.000000 Bohr

Properties computed using the SCF density matrix

  Nuclear Dipole Moment: (a.u.)
     X:     0.0000      Y:     0.0000      Z:     0.0000

  Electronic Dipole Moment: (a.u.)
     X:     0.0000      Y:     0.0000      Z:     0.0000

  Dipole Moment: (a.u.)
     X:     0.0000      Y:     0.0000      Z:     0.0000     Total:     0.0000

  Dipole Moment: (Debye)
     X:     0.0000      Y:     0.0000      Z:     0.0000     Total:     0.0000

*** tstop() called on cqc05 at Thu Aug 20 22:40:46 2020
Module time:
	user time   =       1.91 seconds =       0.03 minutes
	system time =       0.05 seconds =       0.00 minutes
	total time  =          1 seconds =       0.02 minutes
Total time:
	user time   =       1.91 seconds =       0.03 minutes
	system time =       0.05 seconds =       0.00 minutes
	total time  =          1 seconds =       0.02 minutes

*** tstart() called on cqc05
*** at Thu Aug 20 22:40:46 2020

	Wfn Parameters:
	--------------------
	Wavefunction         = CCSD
	Number of irreps     = 8
	Number of MOs        = 89
	Number of active MOs = 84
	AO-Basis             = NONE
	Semicanonical        = false
	Reference            = UHF
	Print Level          = 1

	IRREP	# MOs	# FZDC	# DOCC	# SOCC	# VIRT	# FZVR
	-----	-----	------	------	------	------	------
	 Ag	   23	    2	    1	    0	    20	    0
	 B1g	   9	    0	    0	    0	    9	    0
	 B2g	   9	    0	    0	    0	    9	    0
	 B3g	   9	    0	    0	    0	    9	    0
	 Au	   3	    0	    0	    0	    3	    0
	 B1u	   12	    1	    0	    0	    11	    0
	 B2u	   12	    1	    0	    1	    10	    0
	 B3u	   12	    1	    0	    0	    11	    0
	Transforming integrals...
	IWL integrals will be deleted.
	(OO|OO)...
	Presorting SO-basis two-electron integrals.
	Sorting File: SO Ints (nn|nn) nbuckets = 1
	Transforming the one-electron integrals and constructing Fock matrices
	Starting AA/AB first half-transformation.
	Sorting AA/AB half-transformed integrals.
	Starting BB first half-transformation.
	Sorting BB half-transformed integrals.
	First half integral transformation complete.
	Starting AA second half-transformation.
	Starting AB second half-transformation.
	Starting BB second half-transformation.
	Two-electron integral transformation complete.
	(OO|OV)...
	Starting AA second half-transformation.
	Starting AB second half-transformation.
	Starting BB second half-transformation.
	Two-electron integral transformation complete.
	(OO|VV)...
	Starting AA second half-transformation.
	Starting AB second half-transformation.
	Starting BB second half-transformation.
	Two-electron integral transformation complete.
	(OV|OO)...
	Starting AA/AB first half-transformation.
	Sorting AA/AB half-transformed integrals.
	Starting BB first half-transformation.
	Sorting BB half-transformed integrals.
	First half integral transformation complete.
	Starting AA second half-transformation.
	Starting AB second half-transformation.
	Starting BB second half-transformation.
	Two-electron integral transformation complete.
	(OV|OV)...
	Starting AA second half-transformation.
	Starting AB second half-transformation.
	Starting BB second half-transformation.
	Two-electron integral transformation complete.
	(OV|VV)...
	Starting AA second half-transformation.
	Starting AB second half-transformation.
	Starting BB second half-transformation.
	Two-electron integral transformation complete.
	(VV|OO)...
	Starting AA/AB first half-transformation.
	Sorting AA/AB half-transformed integrals.
	Starting BB first half-transformation.
	Sorting BB half-transformed integrals.
	First half integral transformation complete.
	Starting AA second half-transformation.
	Starting AB second half-transformation.
	Starting BB second half-transformation.
	Two-electron integral transformation complete.
	(VV|OV)...
	Starting AA second half-transformation.
	Starting AB second half-transformation.
	Starting BB second half-transformation.
	Two-electron integral transformation complete.
	(VV|VV)...
	Starting AA second half-transformation.
	Starting AB second half-transformation.
	Starting BB second half-transformation.
	Two-electron integral transformation complete.
	Frozen core energy     =   -239.99792128587421

	Size of irrep 0 of <AB|CD> integrals:      0.208 (MW) /      1.663 (MB)
	Size of irrep 1 of <AB|CD> integrals:      0.163 (MW) /      1.306 (MB)
	Size of irrep 2 of <AB|CD> integrals:      0.170 (MW) /      1.358 (MB)
	Size of irrep 3 of <AB|CD> integrals:      0.163 (MW) /      1.306 (MB)
	Size of irrep 4 of <AB|CD> integrals:      0.121 (MW) /      0.969 (MB)
	Size of irrep 5 of <AB|CD> integrals:      0.190 (MW) /      1.521 (MB)
	Size of irrep 6 of <AB|CD> integrals:      0.181 (MW) /      1.445 (MB)
	Size of irrep 7 of <AB|CD> integrals:      0.190 (MW) /      1.521 (MB)
	Total:                                     1.386 (MW) /     11.088 (MB)

	Size of irrep 0 of <ab|cd> integrals:      0.217 (MW) /      1.737 (MB)
	Size of irrep 1 of <ab|cd> integrals:      0.172 (MW) /      1.378 (MB)
	Size of irrep 2 of <ab|cd> integrals:      0.172 (MW) /      1.378 (MB)
	Size of irrep 3 of <ab|cd> integrals:      0.172 (MW) /      1.378 (MB)
	Size of irrep 4 of <ab|cd> integrals:      0.127 (MW) /      1.020 (MB)
	Size of irrep 5 of <ab|cd> integrals:      0.198 (MW) /      1.584 (MB)
	Size of irrep 6 of <ab|cd> integrals:      0.198 (MW) /      1.584 (MB)
	Size of irrep 7 of <ab|cd> integrals:      0.198 (MW) /      1.584 (MB)
	Total:                                     1.455 (MW) /     11.643 (MB)

	Size of irrep 0 of <Ab|Cd> integrals:      1.008 (MW) /      8.064 (MB)
	Size of irrep 1 of <Ab|Cd> integrals:      0.671 (MW) /      5.366 (MB)
	Size of irrep 2 of <Ab|Cd> integrals:      0.684 (MW) /      5.471 (MB)
	Size of irrep 3 of <Ab|Cd> integrals:      0.671 (MW) /      5.366 (MB)
	Size of irrep 4 of <Ab|Cd> integrals:      0.497 (MW) /      3.976 (MB)
	Size of irrep 5 of <Ab|Cd> integrals:      0.776 (MW) /      6.209 (MB)
	Size of irrep 6 of <Ab|Cd> integrals:      0.757 (MW) /      6.055 (MB)
	Size of irrep 7 of <Ab|Cd> integrals:      0.776 (MW) /      6.209 (MB)
	Total:                                     5.840 (MW) /     46.718 (MB)

	Size of irrep 0 of <IA|BC> integrals:      0.030 (MW) /      0.239 (MB)
	Size of irrep 1 of <IA|BC> integrals:      0.016 (MW) /      0.129 (MB)
	Size of irrep 2 of <IA|BC> integrals:      0.010 (MW) /      0.079 (MB)
	Size of irrep 3 of <IA|BC> integrals:      0.016 (MW) /      0.129 (MB)
	Size of irrep 4 of <IA|BC> integrals:      0.008 (MW) /      0.067 (MB)
	Size of irrep 5 of <IA|BC> integrals:      0.017 (MW) /      0.140 (MB)
	Size of irrep 6 of <IA|BC> integrals:      0.025 (MW) /      0.204 (MB)
	Size of irrep 7 of <IA|BC> integrals:      0.017 (MW) /      0.140 (MB)
	Total:                                     0.141 (MW) /      1.126 (MB)

	Size of irrep 0 of <ia|bc> integrals:      0.020 (MW) /      0.162 (MB)
	Size of irrep 1 of <ia|bc> integrals:      0.007 (MW) /      0.060 (MB)
	Size of irrep 2 of <ia|bc> integrals:      0.007 (MW) /      0.060 (MB)
	Size of irrep 3 of <ia|bc> integrals:      0.007 (MW) /      0.060 (MB)
	Size of irrep 4 of <ia|bc> integrals:      0.002 (MW) /      0.017 (MB)
	Size of irrep 5 of <ia|bc> integrals:      0.010 (MW) /      0.078 (MB)
	Size of irrep 6 of <ia|bc> integrals:      0.010 (MW) /      0.078 (MB)
	Size of irrep 7 of <ia|bc> integrals:      0.010 (MW) /      0.078 (MB)
	Total:                                     0.074 (MW) /      0.594 (MB)

	Size of irrep 0 of <Ia|Bc> integrals:      0.031 (MW) /      0.249 (MB)
	Size of irrep 1 of <Ia|Bc> integrals:      0.016 (MW) /      0.131 (MB)
	Size of irrep 2 of <Ia|Bc> integrals:      0.010 (MW) /      0.079 (MB)
	Size of irrep 3 of <Ia|Bc> integrals:      0.016 (MW) /      0.131 (MB)
	Size of irrep 4 of <Ia|Bc> integrals:      0.008 (MW) /      0.068 (MB)
	Size of irrep 5 of <Ia|Bc> integrals:      0.018 (MW) /      0.141 (MB)
	Size of irrep 6 of <Ia|Bc> integrals:      0.027 (MW) /      0.216 (MB)
	Size of irrep 7 of <Ia|Bc> integrals:      0.018 (MW) /      0.141 (MB)
	Total:                                     0.144 (MW) /      1.156 (MB)

	Size of irrep 0 of <iA|bC> integrals:      0.020 (MW) /      0.161 (MB)
	Size of irrep 1 of <iA|bC> integrals:      0.007 (MW) /      0.059 (MB)
	Size of irrep 2 of <iA|bC> integrals:      0.007 (MW) /      0.060 (MB)
	Size of irrep 3 of <iA|bC> integrals:      0.007 (MW) /      0.059 (MB)
	Size of irrep 4 of <iA|bC> integrals:      0.002 (MW) /      0.017 (MB)
	Size of irrep 5 of <iA|bC> integrals:      0.010 (MW) /      0.078 (MB)
	Size of irrep 6 of <iA|bC> integrals:      0.009 (MW) /      0.070 (MB)
	Size of irrep 7 of <iA|bC> integrals:      0.010 (MW) /      0.078 (MB)
	Total:                                     0.072 (MW) /      0.580 (MB)

	Size of irrep 0 of tIjAb amplitudes:       0.001 (MW) /      0.008 (MB)
	Size of irrep 1 of tIjAb amplitudes:       0.000 (MW) /      0.000 (MB)
	Size of irrep 2 of tIjAb amplitudes:       0.000 (MW) /      0.000 (MB)
	Size of irrep 3 of tIjAb amplitudes:       0.000 (MW) /      0.000 (MB)
	Size of irrep 4 of tIjAb amplitudes:       0.000 (MW) /      0.000 (MB)
	Size of irrep 5 of tIjAb amplitudes:       0.000 (MW) /      0.000 (MB)
	Size of irrep 6 of tIjAb amplitudes:       0.001 (MW) /      0.007 (MB)
	Size of irrep 7 of tIjAb amplitudes:       0.000 (MW) /      0.000 (MB)
	Total:                                     0.002 (MW) /      0.015 (MB)

	Nuclear Rep. energy          =      0.00000000000000
	SCF energy                   =   -241.88044864142933
	One-electron energy          =     -2.75759521840710
	Two-electron (AA) energy     =      0.23126647571931
	Two-electron (BB) energy     =      0.00000000000000
	Two-electron (AB) energy     =      0.64380138713264
	Two-electron energy          =      0.87506786285196
	Reference energy             =   -241.88044864142935

*** tstop() called on cqc05 at Thu Aug 20 22:40:47 2020
Module time:
	user time   =       0.57 seconds =       0.01 minutes
	system time =       0.35 seconds =       0.01 minutes
	total time  =          1 seconds =       0.02 minutes
Total time:
	user time   =       2.48 seconds =       0.04 minutes
	system time =       0.40 seconds =       0.01 minutes
	total time  =          2 seconds =       0.03 minutes

*** tstart() called on cqc05
*** at Thu Aug 20 22:40:47 2020

            **************************
            *                        *
            *        CCENERGY        *
            *                        *
            **************************

    Nuclear Rep. energy (wfn)     =    0.000000000000000
    SCF energy          (wfn)     = -241.880448641429325
    Reference energy    (file100) = -241.880448641429354

    Input parameters:
    -----------------
    Wave function   =     CCSD
    Reference wfn   =     UHF
    Brueckner       =     No
    Memory (Mbytes) =     250000.0
    Maxiter         =     50
    R_Convergence   =     1.0e-07
    E_Convergence   =     1.0e-06
    Restart         =     Yes
    DIIS            =     Yes
    AO Basis        =     NONE
    ABCD            =     NEW
    Cache Level     =     2
    Cache Type      =     LRU
    Print Level     =     1
    Num. of threads =     4
    # Amps to Print =     10
    Print MP2 Amps? =     No
    Analyze T2 Amps =     No
    Print Pair Ener =     No
    Local CC        =     No
    SCS-MP2         =     False
    SCSN-MP2        =     False
    SCS-CCSD        =     False

MP2 correlation energy -0.0381387879338417
                Solving CC Amplitude Equations
                ------------------------------
  Iter             Energy              RMS        T1Diag      D1Diag    New D1Diag    D2Diag
  ----     ---------------------    ---------   ----------  ----------  ----------   --------
     0        -0.038138787933842    0.000e+00    0.000000    0.000000    0.000000    0.000000
     1        -0.046051794440522    5.915e-02    0.012989    0.000000    0.000000    0.000000
     2        -0.051786043738746    2.825e-02    0.025041    0.000000    0.000000    0.000000
     3        -0.051964556638541    5.808e-03    0.027322    0.000000    0.000000    0.000000
     4        -0.052098899696469    1.384e-03    0.027684    0.000000    0.000000    0.000000
     5        -0.052083067671803    3.779e-04    0.027651    0.000000    0.000000    0.000000
     6        -0.052083103070133    9.514e-05    0.027642    0.000000    0.000000    0.000000
     7        -0.052084389989002    2.742e-05    0.027646    0.000000    0.000000    0.000000
     8        -0.052084016939956    8.310e-06    0.027647    0.000000    0.000000    0.000000
     9        -0.052083991043773    2.404e-06    0.027647    0.000000    0.000000    0.000000
    10        -0.052083973313958    7.408e-07    0.027648    0.000000    0.000000    0.000000
    11        -0.052083981830956    1.974e-07    0.027648    0.000000    0.000000    0.000000
    12        -0.052083981036134    5.885e-08    0.027648    0.000000    0.000000    0.000000
    12        -0.052083981036134    5.885e-08    0.027648    0.000000    0.000000    0.000000

    Iterations converged.

    CCSD corr. energy   =   -0.052083981036134
    PPL corr. energy    =    0.024229186825822
    OS PPL corr. energy =    0.023390120872201
    SS PPL corr. energy =    0.000839065953622
    Largest TIA Amplitudes:
              0   4        -0.0320425840
              0   2         0.0187559468
              0   6        -0.0140729552
              0   0         0.0103586454
              0   3        -0.0101119805
              1  62         0.0089364654
              1  64         0.0074585124
              1  66         0.0059508196
              1  61        -0.0050102752
              1  67        -0.0035054031

      * MP2 total energy                      = -241.918587429363185
      * CCSD total energy                     = -241.932532622465487
*** Psi4 exiting successfully. Buy a developer a beer!
