                               Psi4 1.2a1.dev938

  ==> Input File <==

--------------------------------------------------------------------------
# Any line starting with the # character is a comment line
memory 250000 mb
molecule molecule{
0 2
Al          0.0000000000        0.0000000000        0.0000000000
}

set {
  reference uhf
  basis aug-cc-pv(t+d)z
  scf_type OUT_OF_CORE
  freeze_core true
}

energy('ccsd')
--------------------------------------------------------------------------

    Molecular point group: d2h
    Geometry (in Angstrom), charge = 0, multiplicity = 2:

       Center              X                  Y                   Z               Mass
    ------------   -----------------  -----------------  -----------------  -----------------
          AL          0.000000000000     0.000000000000     0.000000000000    26.981538627000

  Charge       = 0
  Multiplicity = 2
  Basis Set: AUG-CC-PV(T+D)Z
    Blend: AUG-CC-PV(T+D)Z

    Orbital Energies (a.u.)
    -----------------------

    Alpha Occupied:

       1Ag   -58.501986     2Ag    -4.911724     1B1u   -3.225928
       1B3u   -3.218806     1B2u   -3.218806     3Ag    -0.425957
       2B1u   -0.217992

    Alpha Virtual:

       2B2u    0.009957     2B3u    0.009957     3B1u    0.046969
       4Ag     0.047214     3B2u    0.063325     3B3u    0.063325
       1B2g    0.104396     1B3g    0.104396     5Ag     0.104612
       6Ag     0.105098     1B1g    0.105098     7Ag     0.322455
       2B3g    0.325438     2B2g    0.325438     4B1u    0.332562
       8Ag     0.336287     9Ag     0.336878     2B1g    0.336878
       4B3u    0.340355     4B2u    0.340355     1Au     0.345253
       5B1u    0.345253     5B3u    0.345783     5B2u    0.345783
       6B1u    0.351154     6B3u    0.359561     6B2u    0.359561
      10Ag     0.936605     3B1g    0.936605     3B3g    0.940835
       3B2g    0.940835    11Ag     0.942246     7B3u    1.052884
       7B2u    1.052884     7B1u    1.059391     2Au     1.059391
       8B3u    1.063100     8B2u    1.063100     8B1u    1.064305
      12Ag     1.859728     9B1u    2.324936     9B3u    2.326909
       9B2u    2.326909     4B1g    3.502593    13Ag     3.502593
       4B3g    3.512753     4B2g    3.512753    14Ag     3.516179

    Beta Occupied:

       1Ag   -58.499099     2Ag    -4.908328     1B3u   -3.217303
       1B2u   -3.217303     1B1u   -3.208028     3Ag    -0.364219

    Beta Virtual:

       2B3u    0.014296     2B2u    0.014296     2B1u    0.030954
       4Ag     0.051464     3B2u    0.066775     3B3u    0.066775
       3B1u    0.095343     1B1g    0.105902     5Ag     0.105902
       1B2g    0.114903     1B3g    0.114903     6Ag     0.118697
       2B1g    0.338420     7Ag     0.338420     4B3u    0.340936
       4B2u    0.340936     8Ag     0.346625     1Au     0.353353
       4B1u    0.353353     5B3u    0.356450     5B2u    0.356450
       2B2g    0.363366     2B3g    0.363366     5B1u    0.363471
       6B3u    0.365321     6B2u    0.365321     9Ag     0.375095
       6B1u    0.393657     3B1g    0.936617    10Ag     0.936617
       3B3g    0.962126     3B2g    0.962126    11Ag     0.971819
       7B3u    1.052628     7B2u    1.052628     2Au     1.074992
       7B1u    1.074992     8B3u    1.089156     8B2u    1.089156
       8B1u    1.094052    12Ag     1.867557     9B3u    2.328698
       9B2u    2.328698     9B1u    2.353206     4B1g    3.502597
      13Ag     3.502597     4B3g    3.516934     4B2g    3.516934
      14Ag     3.521899

    Final Occupation by Irrep:
             Ag   B1g   B2g   B3g    Au   B1u   B2u   B3u
    DOCC [     3,    0,    0,    0,    0,    1,    1,    1 ]
    SOCC [     0,    0,    0,    0,    0,    1,    0,    0 ]

  Energy converged.

  @UHF Final Energy:  -241.87921573750515

   => Energetics <=

    Nuclear Repulsion Energy =              0.0000000000000000
    One-Electron Energy =                -336.6229533496722297
    Two-Electron Energy =                  94.7437376121670809
    Total Energy =                       -241.8792157375051488

  UHF NO Occupations:
  HONO-2 :    1B1u 1.9999965
  HONO-1 :    3 Ag 1.9897640
  HONO-0 :    2B1u 1.0000000
  LUNO+0 :    4 Ag 0.0102360
  LUNO+1 :    3B1u 0.0000035
  LUNO+2 :    2B3u 0.0000002
  LUNO+3 :    2B2u 0.0000002

Properties will be evaluated at   0.000000,   0.000000,   0.000000 Bohr

Properties computed using the SCF density matrix

  Nuclear Dipole Moment: (a.u.)
     X:     0.0000      Y:     0.0000      Z:     0.0000

  Electronic Dipole Moment: (a.u.)
     X:     0.0000      Y:     0.0000      Z:     0.0000

  Dipole Moment: (a.u.)
     X:     0.0000      Y:     0.0000      Z:     0.0000     Total:     0.0000

  Dipole Moment: (Debye)
     X:     0.0000      Y:     0.0000      Z:     0.0000     Total:     0.0000

*** tstop() called on cqc05 at Thu Aug 20 20:10:44 2020
Module time:
	user time   =       0.57 seconds =       0.01 minutes
	system time =       0.04 seconds =       0.00 minutes
	total time  =          1 seconds =       0.02 minutes
Total time:
	user time   =       0.57 seconds =       0.01 minutes
	system time =       0.04 seconds =       0.00 minutes
	total time  =          1 seconds =       0.02 minutes

*** tstart() called on cqc05
*** at Thu Aug 20 20:10:44 2020

	Wfn Parameters:
	--------------------
	Wavefunction         = CCSD
	Number of irreps     = 8
	Number of MOs        = 55
	Number of active MOs = 50
	AO-Basis             = NONE
	Semicanonical        = false
	Reference            = UHF
	Print Level          = 1

	IRREP	# MOs	# FZDC	# DOCC	# SOCC	# VIRT	# FZVR
	-----	-----	------	------	------	------	------
	 Ag	   14	    2	    1	    0	    11	    0
	 B1g	   4	    0	    0	    0	    4	    0
	 B2g	   4	    0	    0	    0	    4	    0
	 B3g	   4	    0	    0	    0	    4	    0
	 Au	   2	    0	    0	    0	    2	    0
	 B1u	   9	    1	    0	    1	    7	    0
	 B2u	   9	    1	    0	    0	    8	    0
	 B3u	   9	    1	    0	    0	    8	    0
	Transforming integrals...
	IWL integrals will be deleted.
	(OO|OO)...
	Presorting SO-basis two-electron integrals.
	Sorting File: SO Ints (nn|nn) nbuckets = 1
	Transforming the one-electron integrals and constructing Fock matrices
	Starting AA/AB first half-transformation.
	Sorting AA/AB half-transformed integrals.
	Starting BB first half-transformation.
	Sorting BB half-transformed integrals.
	First half integral transformation complete.
	Starting AA second half-transformation.
	Starting AB second half-transformation.
	Starting BB second half-transformation.
	Two-electron integral transformation complete.
	(OO|OV)...
	Starting AA second half-transformation.
	Starting AB second half-transformation.
	Starting BB second half-transformation.
	Two-electron integral transformation complete.
	(OO|VV)...
	Starting AA second half-transformation.
	Starting AB second half-transformation.
	Starting BB second half-transformation.
	Two-electron integral transformation complete.
	(OV|OO)...
	Starting AA/AB first half-transformation.
	Sorting AA/AB half-transformed integrals.
	Starting BB first half-transformation.
	Sorting BB half-transformed integrals.
	First half integral transformation complete.
	Starting AA second half-transformation.
	Starting AB second half-transformation.
	Starting BB second half-transformation.
	Two-electron integral transformation complete.
	(OV|OV)...
	Starting AA second half-transformation.
	Starting AB second half-transformation.
	Starting BB second half-transformation.
	Two-electron integral transformation complete.
	(OV|VV)...
	Starting AA second half-transformation.
	Starting AB second half-transformation.
	Starting BB second half-transformation.
	Two-electron integral transformation complete.
	(VV|OO)...
	Starting AA/AB first half-transformation.
	Sorting AA/AB half-transformed integrals.
	Starting BB first half-transformation.
	Sorting BB half-transformed integrals.
	First half integral transformation complete.
	Starting AA second half-transformation.
	Starting AB second half-transformation.
	Starting BB second half-transformation.
	Two-electron integral transformation complete.
	(VV|OV)...
	Starting AA second half-transformation.
	Starting AB second half-transformation.
	Starting BB second half-transformation.
	Two-electron integral transformation complete.
	(VV|VV)...
	Starting AA second half-transformation.
	Starting AB second half-transformation.
	Starting BB second half-transformation.
	Two-electron integral transformation complete.
	Frozen core energy     =   -239.99706577714349

	Size of irrep 0 of <AB|CD> integrals:      0.023 (MW) /      0.182 (MB)
	Size of irrep 1 of <AB|CD> integrals:      0.019 (MW) /      0.152 (MB)
	Size of irrep 2 of <AB|CD> integrals:      0.017 (MW) /      0.139 (MB)
	Size of irrep 3 of <AB|CD> integrals:      0.017 (MW) /      0.139 (MB)
	Size of irrep 4 of <AB|CD> integrals:      0.013 (MW) /      0.104 (MB)
	Size of irrep 5 of <AB|CD> integrals:      0.022 (MW) /      0.178 (MB)
	Size of irrep 6 of <AB|CD> integrals:      0.024 (MW) /      0.195 (MB)
	Size of irrep 7 of <AB|CD> integrals:      0.024 (MW) /      0.195 (MB)
	Total:                                     0.161 (MW) /      1.284 (MB)

	Size of irrep 0 of <ab|cd> integrals:      0.025 (MW) /      0.200 (MB)
	Size of irrep 1 of <ab|cd> integrals:      0.020 (MW) /      0.157 (MB)
	Size of irrep 2 of <ab|cd> integrals:      0.020 (MW) /      0.157 (MB)
	Size of irrep 3 of <ab|cd> integrals:      0.020 (MW) /      0.157 (MB)
	Size of irrep 4 of <ab|cd> integrals:      0.014 (MW) /      0.111 (MB)
	Size of irrep 5 of <ab|cd> integrals:      0.026 (MW) /      0.205 (MB)
	Size of irrep 6 of <ab|cd> integrals:      0.026 (MW) /      0.205 (MB)
	Size of irrep 7 of <ab|cd> integrals:      0.026 (MW) /      0.205 (MB)
	Total:                                     0.174 (MW) /      1.396 (MB)

	Size of irrep 0 of <Ab|Cd> integrals:      0.127 (MW) /      1.020 (MB)
	Size of irrep 1 of <Ab|Cd> integrals:      0.077 (MW) /      0.618 (MB)
	Size of irrep 2 of <Ab|Cd> integrals:      0.074 (MW) /      0.592 (MB)
	Size of irrep 3 of <Ab|Cd> integrals:      0.074 (MW) /      0.592 (MB)
	Size of irrep 4 of <Ab|Cd> integrals:      0.054 (MW) /      0.431 (MB)
	Size of irrep 5 of <Ab|Cd> integrals:      0.095 (MW) /      0.764 (MB)
	Size of irrep 6 of <Ab|Cd> integrals:      0.100 (MW) /      0.799 (MB)
	Size of irrep 7 of <Ab|Cd> integrals:      0.100 (MW) /      0.799 (MB)
	Total:                                     0.702 (MW) /      5.614 (MB)

	Size of irrep 0 of <IA|BC> integrals:      0.006 (MW) /      0.050 (MB)
	Size of irrep 1 of <IA|BC> integrals:      0.002 (MW) /      0.013 (MB)
	Size of irrep 2 of <IA|BC> integrals:      0.003 (MW) /      0.025 (MB)
	Size of irrep 3 of <IA|BC> integrals:      0.003 (MW) /      0.025 (MB)
	Size of irrep 4 of <IA|BC> integrals:      0.001 (MW) /      0.011 (MB)
	Size of irrep 5 of <IA|BC> integrals:      0.005 (MW) /      0.043 (MB)
	Size of irrep 6 of <IA|BC> integrals:      0.004 (MW) /      0.030 (MB)
	Size of irrep 7 of <IA|BC> integrals:      0.004 (MW) /      0.030 (MB)
	Total:                                     0.029 (MW) /      0.228 (MB)

	Size of irrep 0 of <ia|bc> integrals:      0.004 (MW) /      0.032 (MB)
	Size of irrep 1 of <ia|bc> integrals:      0.001 (MW) /      0.009 (MB)
	Size of irrep 2 of <ia|bc> integrals:      0.001 (MW) /      0.009 (MB)
	Size of irrep 3 of <ia|bc> integrals:      0.001 (MW) /      0.009 (MB)
	Size of irrep 4 of <ia|bc> integrals:      0.000 (MW) /      0.004 (MB)
	Size of irrep 5 of <ia|bc> integrals:      0.003 (MW) /      0.020 (MB)
	Size of irrep 6 of <ia|bc> integrals:      0.003 (MW) /      0.020 (MB)
	Size of irrep 7 of <ia|bc> integrals:      0.003 (MW) /      0.020 (MB)
	Total:                                     0.016 (MW) /      0.124 (MB)

	Size of irrep 0 of <Ia|Bc> integrals:      0.007 (MW) /      0.054 (MB)
	Size of irrep 1 of <Ia|Bc> integrals:      0.002 (MW) /      0.013 (MB)
	Size of irrep 2 of <Ia|Bc> integrals:      0.003 (MW) /      0.026 (MB)
	Size of irrep 3 of <Ia|Bc> integrals:      0.003 (MW) /      0.026 (MB)
	Size of irrep 4 of <Ia|Bc> integrals:      0.001 (MW) /      0.011 (MB)
	Size of irrep 5 of <Ia|Bc> integrals:      0.006 (MW) /      0.047 (MB)
	Size of irrep 6 of <Ia|Bc> integrals:      0.004 (MW) /      0.030 (MB)
	Size of irrep 7 of <Ia|Bc> integrals:      0.004 (MW) /      0.030 (MB)
	Total:                                     0.030 (MW) /      0.239 (MB)

	Size of irrep 0 of <iA|bC> integrals:      0.004 (MW) /      0.031 (MB)
	Size of irrep 1 of <iA|bC> integrals:      0.001 (MW) /      0.009 (MB)
	Size of irrep 2 of <iA|bC> integrals:      0.001 (MW) /      0.009 (MB)
	Size of irrep 3 of <iA|bC> integrals:      0.001 (MW) /      0.009 (MB)
	Size of irrep 4 of <iA|bC> integrals:      0.000 (MW) /      0.004 (MB)
	Size of irrep 5 of <iA|bC> integrals:      0.002 (MW) /      0.017 (MB)
	Size of irrep 6 of <iA|bC> integrals:      0.003 (MW) /      0.020 (MB)
	Size of irrep 7 of <iA|bC> integrals:      0.003 (MW) /      0.020 (MB)
	Total:                                     0.015 (MW) /      0.119 (MB)

	Size of irrep 0 of tIjAb amplitudes:       0.000 (MW) /      0.003 (MB)
	Size of irrep 1 of tIjAb amplitudes:       0.000 (MW) /      0.000 (MB)
	Size of irrep 2 of tIjAb amplitudes:       0.000 (MW) /      0.000 (MB)
	Size of irrep 3 of tIjAb amplitudes:       0.000 (MW) /      0.000 (MB)
	Size of irrep 4 of tIjAb amplitudes:       0.000 (MW) /      0.000 (MB)
	Size of irrep 5 of tIjAb amplitudes:       0.000 (MW) /      0.002 (MB)
	Size of irrep 6 of tIjAb amplitudes:       0.000 (MW) /      0.000 (MB)
	Size of irrep 7 of tIjAb amplitudes:       0.000 (MW) /      0.000 (MB)
	Total:                                     0.001 (MW) /      0.005 (MB)

	Nuclear Rep. energy          =      0.00000000000000
	SCF energy                   =   -241.87921573750515
	One-electron energy          =     -2.75613246162279
	Two-electron (AA) energy     =      0.23081577255677
	Two-electron (BB) energy     =      0.00000000000000
	Two-electron (AB) energy     =      0.64316672870425
	Two-electron energy          =      0.87398250126101
	Reference energy             =   -241.87921573750526

*** tstop() called on cqc05 at Thu Aug 20 20:10:44 2020
Module time:
	user time   =       0.09 seconds =       0.00 minutes
	system time =       0.10 seconds =       0.00 minutes
	total time  =          0 seconds =       0.00 minutes
Total time:
	user time   =       0.67 seconds =       0.01 minutes
	system time =       0.14 seconds =       0.00 minutes
	total time  =          1 seconds =       0.02 minutes

*** tstart() called on cqc05
*** at Thu Aug 20 20:10:44 2020

            **************************
            *                        *
            *        CCENERGY        *
            *                        *
            **************************

    Nuclear Rep. energy (wfn)     =    0.000000000000000
    SCF energy          (wfn)     = -241.879215737505149
    Reference energy    (file100) = -241.879215737505262

    Input parameters:
    -----------------
    Wave function   =     CCSD
    Reference wfn   =     UHF
    Brueckner       =     No
    Memory (Mbytes) =     250000.0
    Maxiter         =     50
    R_Convergence   =     1.0e-07
    E_Convergence   =     1.0e-06
    Restart         =     Yes
    DIIS            =     Yes
    AO Basis        =     NONE
    ABCD            =     NEW
    Cache Level     =     2
    Cache Type      =     LRU
    Print Level     =     1
    Num. of threads =     4
    # Amps to Print =     10
    Print MP2 Amps? =     No
    Analyze T2 Amps =     No
    Print Pair Ener =     No
    Local CC        =     No
    SCS-MP2         =     False
    SCSN-MP2        =     False
    SCS-CCSD        =     False

MP2 correlation energy -0.0361169624539302
                Solving CC Amplitude Equations
                ------------------------------
  Iter             Energy              RMS        T1Diag      D1Diag    New D1Diag    D2Diag
  ----     ---------------------    ---------   ----------  ----------  ----------   --------
     0        -0.036116962453930    0.000e+00    0.000000    0.000000    0.000000    0.000000
     1        -0.045156914999028    6.044e-02    0.012064    0.000000    0.000000    0.000000
     2        -0.050798763357839    2.824e-02    0.024040    0.000000    0.000000    0.000000
     3        -0.051122527758482    6.115e-03    0.026602    0.000000    0.000000    0.000000
     4        -0.051238636844427    1.467e-03    0.026982    0.000000    0.000000    0.000000
     5        -0.051203501519359    3.058e-04    0.026893    0.000000    0.000000    0.000000
     6        -0.051215735257262    8.238e-05    0.026913    0.000000    0.000000    0.000000
     7        -0.051214622860688    2.368e-05    0.026913    0.000000    0.000000    0.000000
     8        -0.051213958523367    7.272e-06    0.026913    0.000000    0.000000    0.000000
     9        -0.051214255388469    1.999e-06    0.026914    0.000000    0.000000    0.000000
    10        -0.051214243294976    5.267e-07    0.026914    0.000000    0.000000    0.000000
    11        -0.051214240310497    1.813e-07    0.026914    0.000000    0.000000    0.000000
    12        -0.051214240606753    3.466e-08    0.026914    0.000000    0.000000    0.000000
    12        -0.051214240606753    3.466e-08    0.026914    0.000000    0.000000    0.000000

    Iterations converged.

    CCSD corr. energy   =   -0.051214240606753
    PPL corr. energy    =    0.022726865874041
    OS PPL corr. energy =    0.021931470728694
    SS PPL corr. energy =    0.000795395145346
    Largest TIA Amplitudes:
              0   3        -0.0275852062
              0   1        -0.0242436257
              0   4         0.0149261163
              0   0        -0.0118658838
              1  28         0.0100648765
              0   7        -0.0073412294
              1  25        -0.0060197125
              1  26         0.0050887232
              1  30         0.0043083420
              0   8         0.0004152039

    Largest Tia Amplitudes:
              0   0         0.0096614255
              0   5         0.0070043807
              0   4        -0.0069700668
              0   2        -0.0050234130
              0   8        -0.0020959849
              0   7        -0.0019782981
              0  10        -0.0000485486

    Largest TIJAB Amplitudes:
      1   0  26   4        -0.0241773571
      1   0  32  20        -0.0194515803
      1   0  40  16        -0.0194515803
      1   0  33  20        -0.0189399302
      1   0  41  16        -0.0189399302
      1   0  36  20         0.0161865028
      1   0  44  16         0.0161865028
      1   0  32  19        -0.0156959055
      1   0  40  15        -0.0156959055
      1   0  33  19        -0.0140943788

    Largest TIjAb Amplitudes:
      0   0  32  34         0.0829841103

      * MP2 total energy                      = -241.915332699959180
      * CCSD total energy                     = -241.930429978112016
*** Psi4 exiting successfully. Buy a developer a beer!
