                               Psi4 1.2a1.dev939

  ==> Input File <==

--------------------------------------------------------------------------
# Any line starting with the # character is a comment line

memory 32000 mb

molecule molecule {
0 1
O         -0.7244270781        0.0593002388       -0.0313570792
O          0.7244270781       -0.0593002388       -0.0313570792
H         -0.9500122316       -0.7177793110        0.4977423786
H          0.9500122316        0.7177793110        0.4977423786
}

set {
  reference rhf
  basis aug-cc-pv(Q+d)z
  scf_type OUT_OF_CORE
  freeze_core true
}

energy('ccsd')
--------------------------------------------------------------------------

    Molecular point group: c2

    Geometry (in Angstrom), charge = 0, multiplicity = 1:

       Center              X                  Y                   Z               Mass
    ------------   -----------------  -----------------  -----------------  -----------------
           O         -0.724427078100     0.059300238800    -0.031361985712    15.994914619560
           O          0.724427078100    -0.059300238800    -0.031361985712    15.994914619560
           H         -0.950012231600    -0.717779311000     0.497737472088     1.007825032070
           H          0.950012231600     0.717779311000     0.497737472088     1.007825032070

  Charge       = 0
  Multiplicity = 1
  Basis Set: AUG-CC-PV(Q+D)Z
    Blend: AUG-CC-PV(Q+D)Z

    Orbital Energies (a.u.)
    -----------------------

    Doubly Occupied:

       1A    -20.631398     1B    -20.631109     2A     -1.475339
       2B     -1.215020     3A     -0.713381     3B     -0.712011
       4A     -0.609671     5A     -0.520365     4B     -0.488939

  @RHF Final Energy:  -150.84873825127488

   => Energetics <=

    Nuclear Repulsion Energy =             36.7917841988045637
    One-Electron Energy =                -281.2865824436103139
    Two-Electron Energy =                  93.6460599935308693
    Total Energy =                       -150.8487382512748809
      * MP2 total energy                      = -151.391022762475956
      * CCSD total energy                     = -151.392475991927199
*** Psi4 exiting successfully. Buy a developer a beer!
