                               Psi4 1.4a3.dev88

  ==> Input File <==

--------------------------------------------------------------------------
# Any line starting with the # character is a comment line
memory 250000 mb
molecule molecule{
1 2
P          0.0000000000        0.0000000000        0.9966955025
P          0.0000000000        0.0000000000       -0.9966955025
}

set {
  reference uhf
  basis aug-cc-pV(6+d)Z
  scf_type OUT_OF_CORE
  freeze_core true
}

energy('ccsd(t)')
--------------------------------------------------------------------------

    Molecular point group: d2h

    Geometry (in Angstrom), charge = 1, multiplicity = 2:

       Center              X                  Y                   Z               Mass
    ------------   -----------------  -----------------  -----------------  -----------------
         P            0.000000000000     0.000000000000     0.996695502500    30.973761998420
         P            0.000000000000     0.000000000000    -0.996695502500    30.973761998420

  Charge       = 1
  Multiplicity = 2
  Basis Set: AUG-CC-PV(6+D)Z
    Blend: AUG-CC-PV(6+D)Z

    Orbital Energies [Eh]
    ---------------------

    Alpha Occupied:

       1Ag   -80.281012     1B1u  -80.281007     2Ag    -7.818126
       2B1u   -7.817626     1B3u   -5.714714     1B2g   -5.714564
       3Ag    -5.706946     1B2u   -5.706644     1B3g   -5.706501
       3B1u   -5.705508     4Ag    -1.184989     4B1u   -0.893496
       2B3u   -0.669815     5Ag    -0.668258     2B2u   -0.628295

    Alpha Virtual:

       2B2g   -0.261292     2B3g   -0.233823     6Ag    -0.101981
       5B1u   -0.092036     3B3u   -0.076298     3B2u   -0.071209
       7Ag    -0.056415     1B1g   -0.045500     8Ag    -0.044247
       3B2g   -0.041234     6B1u   -0.040549     3B3g   -0.038682
       7B1u    0.005821     4B3u    0.011015     4B2u    0.019757
       9Ag     0.023613     1Au     0.032840     8B1u    0.033277
       4B2g    0.056098     5B3u    0.056809     4B3g    0.059696
       9B1u    0.064037     5B2u    0.066702    10Ag     0.093291
       2B1g    0.123648    11Ag     0.125384     6B3u    0.136554
       6B2u    0.146671     7B3u    0.147434    12Ag     0.150584
       7B2u    0.151272     5B2g    0.159334    10B1u    0.160440
       5B3g    0.166682     2Au     0.191782    11B1u    0.192539
      13Ag     0.228039     3B1g    0.233566     6B2g    0.234585
       6B3g    0.234621    14Ag     0.237156     7B2g    0.249629
       7B3g    0.255976    12B1u    0.262606     8B3u    0.301682
       8B2u    0.308426    13B1u    0.349864     3Au     0.351024
      14B1u    0.357249    15Ag     0.373016     9B3u    0.466412
       4B1g    0.476760    16Ag     0.476761     8B2g    0.483030
       9B2u    0.483899     8B3g    0.496946    15B1u    0.546971
      10B3u    0.550089    10B2u    0.550174    16B1u    0.595537
       4Au     0.595665    17Ag     0.600576    17B1u    0.600621
       5Au     0.600745     5B1g    0.603165    11B3u    0.607179
      18Ag     0.610241    11B2u    0.620921    18B1u    0.627019
       9B2g    0.631411     9B3g    0.645277    12B3u    0.672463
      12B2u    0.672553    19Ag     0.684406    10B2g    0.684722
      10B3g    0.684796     6B1g    0.696136    20Ag     0.698190
      11B2g    0.719967    13B3u    0.728706    11B3g    0.728767
      13B2u    0.739563    21Ag     0.768171     7B1g    0.770622
      22Ag     0.775224     6Au     0.784346    19B1u    0.784598
      23Ag     0.821602    12B2g    0.832953    12B3g    0.833043
      20B1u    0.845986    13B2g    0.847685    13B3g    0.862516
      21B1u    0.983813    14B3u    1.097748    14B2u    1.117186
      22B1u    1.143561     7Au     1.147874    23B1u    1.165422
      15B3u    1.335279    15B2u    1.335279     8B1g    1.354536
      24Ag     1.354536    14B2g    1.375429    14B3g    1.386768
      25Ag     1.418949    16B3u    1.435845    16B2u    1.435879
      26Ag     1.485227     9B1g    1.485227    15B2g    1.486244
      15B3g    1.486244    24B1u    1.533367    27Ag     1.545411
      10B1g    1.545525     8Au     1.569943    25B1u    1.569947
      17B3u    1.586872    17B2u    1.607788    18B3u    1.636399
      28Ag     1.639057    18B2u    1.645827    26B1u    1.646488
       9Au     1.648080    16B2g    1.651024    19B3u    1.652384
      16B3g    1.653376    19B2u    1.654184    17B2g    1.660663
      29Ag     1.661743    11B1g    1.663519    17B3g    1.672709
      10Au     1.679267    27B1u    1.679389    28B1u    1.685574
      30Ag     1.697145    11Au     1.726348    29B1u    1.726354
      20B3u    1.773058    20B2u    1.773220    12B1g    1.802191
      31Ag     1.803037    21B3u    1.807040    21B2u    1.823635
      18B2g    1.837044    18B3g    1.837133    30B1u    1.879288
      19B2g    1.892141    19B3g    1.912373    20B2g    1.995414
      22B3u    2.008035    20B3g    2.012312    22B2u    2.033877
      31B1u    2.054700    12Au     2.055303    32Ag     2.069196
      21B2g    2.129996    21B3g    2.130070    33Ag     2.134073
      13B1g    2.189754    34Ag     2.191407    32B1u    2.202843
      22B2g    2.375228    22B3g    2.390273    33B1u    2.539127
      23B3u    2.641794    23B2u    2.656962    13Au     2.724547
      34B1u    2.725792    35Ag     2.772487    24B3u    3.004671
      24B2u    3.004671    14B1g    3.102079    36Ag     3.102079
      15B1g    3.102456    37Ag     3.102456    25B3u    3.146329
      25B2u    3.146361    23B2g    3.152160    35B1u    3.160192
      23B3g    3.178109    14Au     3.206856    36B1u    3.206856
      38Ag     3.217592    16B1g    3.217946    39Ag     3.328660
      17B1g    3.328661    26B3u    3.347299    26B2u    3.372939
      15Au     3.392016    37B1u    3.392019    40Ag     3.393530
      27B3u    3.413502    27B2u    3.413502    24B2g    3.444069
      24B3g    3.444069    41Ag     3.456110    18B1g    3.456110
      16Au     3.465364    38B1u    3.465479    25B2g    3.502605
      25B3g    3.502605    28B3u    3.519897    28B2u    3.520908
      26B2g    3.531490    26B3g    3.531539    29B3u    3.547354
      29B2u    3.567608    27B2g    3.600993    27B3g    3.615983
      39B1u    3.645191    42Ag     3.663026    17Au     3.663759
      40B1u    3.663759    19B1g    3.668491    43Ag     3.682329
      41B1u    3.748236    18Au     3.748270    30B3u    3.750718
      44Ag     3.763972    30B2u    3.765591    31B3u    3.814319
      31B2u    3.814629    42B1u    3.851408    28B2g    3.886034
      28B3g    3.886045    19Au     3.925196    43B1u    3.925198
      29B2g    3.987977    29B3g    3.987982    32B3u    4.011444
      32B2u    4.011450    44B1u    4.056886    20Au     4.058120
      20B1g    4.071453    45Ag     4.072018    21B1g    4.127782
      46Ag     4.127895    30B2g    4.159924    30B3g    4.177909
      45B1u    4.194617    31B2g    4.330278    31B3g    4.351694
      33B3u    4.383883    47Ag     4.384568    33B2u    4.400067
      46B1u    4.489744    48Ag     4.576062    22B1g    4.583065
      49Ag     4.597983    32B2g    4.704674    32B3g    4.704688
      21Au     4.707128    47B1u    4.708005    33B2g    4.860744
      33B3g    4.876721    50Ag     4.966515    48B1u    5.110367
      34B3u    5.392050    34B2u    5.408829    22Au     5.613376
      49B1u    5.613883    34B2g    5.627378    34B3g    5.648167
      35B3u    6.175255    50B1u    6.188703    35B2u    6.198062
      35B2g    6.687053    35B3g    6.708444    51Ag     6.734339
      23B1g    6.796622    52Ag     6.796626    36B3u    6.824814
      36B2u    6.824847    51B1u    6.855577    23Au     6.855577
      24B1g    6.869215    53Ag     6.870493    37B3u    6.890634
      37B2u    6.911804    36B2g    7.009141    36B3g    7.009154
      38B3u    7.166224    38B2u    7.166244    39B3u    7.176166
      39B2u    7.176173    54Ag     7.195295    25B1g    7.195295
      55Ag     7.206506    26B1g    7.206520    52B1u    7.244856
      24Au     7.244856    56Ag     7.266396    53B1u    7.278429
      27B1g    7.286625    25Au     7.286751    57Ag     7.296483
      54B1u    7.302741    40B3u    7.320172    40B2u    7.338991
      37B2g    7.358112    37B3g    7.358112    41B3u    7.571321
      41B2u    7.571321    28B1g    7.586731    58Ag     7.586731
      55B1u    7.599642    26Au     7.599643    56B1u    7.601309
      38B2g    7.630041    38B3g    7.630041    39B2g    7.695355
      39B3g    7.711185    42B3u    7.746634    42B2u    7.746642
      57B1u    7.762104    27Au     7.762104    59Ag     7.824018
      58B1u    7.923399    28Au     7.923879    40B2g    7.924663
      40B3g    7.926473    41B2g    7.941467    41B3g    7.961504
      29B1g    8.006781    60Ag     8.007483    42B2g    8.090121
      42B3g    8.090135    43B3u    8.131087    43B2u    8.149163
      59B1u    8.167425    60B1u    8.398183    61Ag     8.435180
      29Au     8.463357    61B1u    8.466194    44B3u    8.735964
      44B2u    8.735965    43B2g    8.840614    43B3g    8.840617
      30B1g    8.866349    62Ag     8.866497    63Ag     9.018349
      31B1g    9.018427    44B2g    9.100150    44B3g    9.117042
      62B1u    9.227599    30Au     9.261074    63B1u    9.262443
      45B3u    9.376536    45B2u    9.389543    64Ag     9.390095
      64B1u    9.794489    31Au     9.794491    45B2g    9.899458
      45B3g    9.912911    46B3u   10.002186    46B2u   10.019209
      65Ag    10.431925    46B2g   10.504884    46B3g   10.523281
      65B1u   10.703624    66Ag    11.245757    66B1u   13.336988
      67Ag    25.589519    32B1g   25.589542    47B3u   25.723840
      47B2u   25.732935    67B1u   25.923730    32Au    25.923744
      68Ag    25.939881    47B2g   26.122738    48B3u   26.124032
      47B3g   26.130290    48B2u   26.132066    68B1u   26.336004
      48B2g   27.093089    48B3g   27.103111    69B1u   28.554401
      69Ag    29.692668    70Ag   211.147269    70B1u  214.926460

    Beta Occupied:

       1Ag   -80.277830     1B1u  -80.277826     2Ag    -7.814607
       2B1u   -7.814188     3Ag    -5.705911     1B2u   -5.705158
       1B3g   -5.705009     3B1u   -5.704519     1B3u   -5.698689
       1B2g   -5.698553     4Ag    -1.119632     4B1u   -0.865006
       5Ag    -0.664418     2B2u   -0.615621

    Beta Virtual:

       2B3u   -0.299159     2B3g   -0.229228     2B2g   -0.175356
       6Ag    -0.096434     5B1u   -0.086502     3B2u   -0.070797
       3B3u   -0.068710     7Ag    -0.054286     3B3g   -0.038430
       3B2g   -0.037557     6B1u   -0.033609     8Ag    -0.032570
       1B1g   -0.032506     7B1u    0.006917     4B2u    0.019982
       4B3u    0.021914     9Ag     0.027219     1Au     0.034601
       8B1u    0.034654     4B3g    0.060212     4B2g    0.062076
       5B2u    0.067877     9B1u    0.068121     5B3u    0.073525
      10Ag     0.101023     2B1g    0.148068    11Ag     0.148427
       6B2u    0.149535     6B3u    0.149772     7B2u    0.151397
      12Ag     0.151694     7B3u    0.157227    10B1u    0.161618
       5B2g    0.166771     5B3g    0.167257    11B1u    0.200499
       2Au     0.200503    13Ag     0.232084     3B1g    0.235364
       6B3g    0.235554     6B2g    0.235561    14Ag     0.237100
       7B2g    0.255868     7B3g    0.256326    12B1u    0.265659
       8B2u    0.309016     8B3u    0.309786    13B1u    0.356302
       3Au     0.360461    14B1u    0.362323    15Ag     0.378958
       4B1g    0.478951    16Ag     0.478951     9B2u    0.486251
       9B3u    0.488567     8B3g    0.498611     8B2g    0.501648
      15B1u    0.551058    10B2u    0.555218    10B3u    0.555233
      16B1u    0.597749     4Au     0.597821    17B1u    0.602740
       5Au     0.602889    11B3u    0.618502    17Ag     0.618537
      11B2u    0.621395     5B1g    0.621436    18Ag     0.621774
      18B1u    0.627556     9B2g    0.642593     9B3g    0.645910
      12B3u    0.680895    12B2u    0.680897    19Ag     0.684832
      10B2g    0.686833    10B3g    0.686845     6B1g    0.701630
      20Ag     0.702295    11B2g    0.723817    11B3g    0.729206
      13B3u    0.739585    13B2u    0.740264    21Ag     0.774188
       7B1g    0.777019    22Ag     0.777865    19B1u    0.795498
       6Au     0.795528    23Ag     0.825749    12B2g    0.839263
      12B3g    0.839266    20B1u    0.847359    13B2g    0.862518
      13B3g    0.863855    21B1u    0.988458    14B3u    1.111293
      14B2u    1.119127    22B1u    1.150556     7Au     1.152755
      23B1u    1.168558    15B2u    1.338802    15B3u    1.338802
       8B1g    1.361160    24Ag     1.361160    14B2g    1.383203
      14B3g    1.387237    25Ag     1.429435    16B3u    1.447285
      16B2u    1.447287    15B2g    1.488733    15B3g    1.488733
      26Ag     1.490104     9B1g    1.490104    24B1u    1.537794
      27Ag     1.559597    10B1g    1.559718     8Au     1.574990
      25B1u    1.574990    17B3u    1.602079    17B2u    1.609414
      18B3u    1.641066    28Ag     1.645397    18B2u    1.647097
      26B1u    1.648765     9Au     1.649762    19B3u    1.654390
      16B2g    1.655014    19B2u    1.655182    16B3g    1.655848
      17B2g    1.664382    29Ag     1.665674    11B1g    1.666546
      17B3g    1.672696    27B1u    1.684468    10Au     1.685041
      28B1u    1.686209    30Ag     1.697695    11Au     1.729341
      29B1u    1.729342    20B3u    1.784686    20B2u    1.784720
      12B1g    1.810616    31Ag     1.810749    21B3u    1.815720
      21B2u    1.823566    18B2g    1.850014    18B3g    1.850028
      30B1u    1.878682    19B2g    1.905503    19B3g    1.914167
      20B2g    2.002467    20B3g    2.013040    22B3u    2.030225
      22B2u    2.037264    31B1u    2.063969    12Au     2.064174
      32Ag     2.074408    33Ag     2.133315    21B2g    2.133819
      21B3g    2.133849    13B1g    2.194496    34Ag     2.195267
      32B1u    2.206455    22B2g    2.383320    22B3g    2.390580
      33B1u    2.545500    23B3u    2.647646    23B2u    2.657321
      13Au     2.730543    34B1u    2.731038    35Ag     2.780567
      24B3u    3.010196    24B2u    3.010196    36Ag     3.106719
      14B1g    3.106719    37Ag     3.111071    15B1g    3.111071
      25B3u    3.157942    25B2u    3.157948    35B1u    3.164198
      23B2g    3.165458    23B3g    3.180628    14Au     3.210873
      36B1u    3.210873    38Ag     3.227442    16B1g    3.227601
      39Ag     3.337399    17B1g    3.337399    26B3u    3.360320
      26B2u    3.374072    40Ag     3.397360    15Au     3.400651
      37B1u    3.400652    27B3u    3.419950    27B2u    3.419950
      24B2g    3.448566    24B3g    3.448566    41Ag     3.459828
      18B1g    3.459828    16Au     3.469225    38B1u    3.469261
      25B2g    3.508284    25B3g    3.508284    28B3u    3.525468
      28B2u    3.525856    26B2g    3.536231    26B3g    3.536248
      29B3u    3.553615    29B2u    3.567905    27B2g    3.605572
      27B3g    3.615936    39B1u    3.646092    42Ag     3.667045
      17Au     3.668443    40B1u    3.668444    19B1g    3.670596
      43Ag     3.682346    18Au     3.749778    41B1u    3.749785
      30B3u    3.754602    30B2u    3.766204    44Ag     3.770176
      31B3u    3.817962    31B2u    3.818102    42B1u    3.852916
      28B2g    3.890942    28B3g    3.890945    19Au     3.929554
      43B1u    3.929555    29B2g    3.995879    29B3g    3.995881
      32B3u    4.019501    32B2u    4.019503    44B1u    4.064945
      20Au     4.065472    20B1g    4.077085    45Ag     4.077321
      21B1g    4.133115    46Ag     4.133137    30B2g    4.165427
      30B3g    4.178545    45B1u    4.197425    31B2g    4.337589
      31B3g    4.352508    47Ag     4.386857    33B3u    4.390522
      33B2u    4.400101    46B1u    4.496019    48Ag     4.582562
      22B1g    4.587844    49Ag     4.598751    32B2g    4.709830
      32B3g    4.709836    21Au     4.712130    47B1u    4.712508
      33B2g    4.866695    33B3g    4.877026    50Ag     4.967097
      48B1u    5.114615    34B3u    5.398820    34B2u    5.409434
      22Au     5.618687    49B1u    5.618940    34B2g    5.636528
      34B3g    5.649070    35B3u    6.188269    50B1u    6.190858
      35B2u    6.200081    35B2g    6.696535    35B3g    6.709819
      51Ag     6.738319    23B1g    6.803025    52Ag     6.803026
      36B3u    6.830179    36B2u    6.830191    51B1u    6.861704
      23Au     6.861704    24B1g    6.873052    53Ag     6.873686
      37B3u    6.897316    37B2u    6.912121    36B2g    7.013551
      36B3g    7.013555    38B3u    7.172028    38B2u    7.172037
      39B3u    7.180685    39B2u    7.180688    54Ag     7.201048
      25B1g    7.201048    55Ag     7.211620    26B1g    7.211624
      52B1u    7.250442    24Au     7.250442    56Ag     7.273612
      53B1u    7.283644    25Au     7.289363    27B1g    7.291034
      57Ag     7.297164    54B1u    7.302440    40B3u    7.325544
      40B2u    7.339201    37B2g    7.363591    37B3g    7.363591
      41B3u    7.577652    41B2u    7.577652    28B1g    7.592023
      58Ag     7.592023    55B1u    7.602308    26Au     7.605327
      56B1u    7.605327    38B2g    7.635974    38B3g    7.635974
      39B2g    7.698658    39B3g    7.711000    42B3u    7.750499
      42B2u    7.750502    57B1u    7.766528    27Au     7.766528
      59Ag     7.826293    58B1u    7.927717    28Au     7.927977
      40B2g    7.930843    40B3g    7.931713    41B2g    7.946865
      41B3g    7.961912    29B1g    8.009752    60Ag     8.010154
      42B2g    8.093813    42B3g    8.093821    43B3u    8.135742
      43B2u    8.149470    59B1u    8.169625    60B1u    8.402371
      61Ag     8.436694    29Au     8.467121    61B1u    8.468868
      44B3u    8.739096    44B2u    8.739097    43B2g    8.843742
      43B3g    8.843743    30B1g    8.868767    62Ag     8.868863
      63Ag     9.022862    31B1g    9.022903    44B2g    9.104572
      44B3g    9.117346    62B1u    9.229070    30Au     9.263630
      63B1u    9.264456    45B3u    9.379963    45B2u    9.389519
      64Ag     9.391923    64B1u    9.798131    31Au     9.798133
      45B2g    9.903100    45B3g    9.913118    46B3u   10.006938
      46B2u   10.019807    65Ag    10.432881    46B2g   10.509786
      46B3g   10.523790    65B1u   10.705227    66Ag    11.248601
      66B1u   13.339590    32B1g   25.594383    67Ag    25.594389
      47B3u   25.731934    47B2u   25.733886    32Au    25.928463
      67B1u   25.928469    68Ag    25.941585    47B2g   26.127821
      48B3u   26.129652    47B3g   26.130889    48B2u   26.132735
      68B1u   26.337583    48B2g   27.101388    48B3g   27.104126
      69B1u   28.555136    69Ag    29.693577    70Ag   211.148512
      70B1u  214.927705

    Final Occupation by Irrep:
             Ag   B1g   B2g   B3g    Au   B1u   B2u   B3u
    DOCC [     5,    0,    1,    1,    0,    4,    2,    1 ]
    SOCC [     0,    0,    0,    0,    0,    0,    0,    1 ]

  @UHF Final Energy:  -681.16047388887898

   => Energetics <=

    Nuclear Repulsion Energy =             59.7298132188321063
    One-Electron Energy =               -1053.6161061502539269
    Two-Electron Energy =                 312.7258190425428666
    Total Energy =                       -681.1604738888789825

  UHF NO Occupations:
  HONO-2 :    4B1u 1.9982659
  HONO-1 :    5 Ag 1.9976514
  HONO-0 :    2B3u 1.0000000
  LUNO+0 :    6 Ag 0.0023486
  LUNO+1 :    5B1u 0.0017341
  LUNO+2 :    7 Ag 0.0002953
  LUNO+3 :    3B2u 0.0002578

Computation Completed

Properties will be evaluated at   0.000000,   0.000000,   0.000000 [a0]

Properties computed using the SCF density matrix

  Nuclear Dipole Moment: [e a0]
     X:     0.0000      Y:     0.0000      Z:    -0.0000

  Electronic Dipole Moment: [e a0]
     X:     0.0000      Y:     0.0000      Z:     0.0000

  Dipole Moment: [e a0]
     X:     0.0000      Y:     0.0000      Z:    -0.0000     Total:     0.0000

  Dipole Moment: [D]
     X:     0.0000      Y:     0.0000      Z:    -0.0000     Total:     0.0000

*** tstop() called on n412-047.vsc4.prov at Sun Jan 24 01:07:04 2021
Module time:
	user time   =     700.50 seconds =      11.68 minutes
	system time =      37.97 seconds =       0.63 minutes
	total time  =        773 seconds =      12.88 minutes
Total time:
	user time   =     700.50 seconds =      11.68 minutes
	system time =      37.97 seconds =       0.63 minutes
	total time  =        773 seconds =      12.88 minutes

*** tstart() called on n412-047.vsc4.prov
*** at Sun Jan 24 01:07:04 2021

	Wfn Parameters:
	--------------------
	Wavefunction         = CCSD_T
	Number of irreps     = 8
	Number of MOs        = 396
	Number of active MOs = 386
	AO-Basis             = NONE
	Semicanonical        = false
	Reference            = UHF
	Print Level          = 1

	IRREP	# MOs	# FZDC	# DOCC	# SOCC	# VIRT	# FZVR
	-----	-----	------	------	------	------	------
	 Ag	   70	    3	    2	    0	    65	    0
	 B1g	   32	    0	    0	    0	    32	    0
	 B2g	   48	    1	    0	    0	    47	    0
	 B3g	   48	    1	    0	    0	    47	    0
	 Au	   32	    0	    0	    0	    32	    0
	 B1u	   70	    3	    1	    0	    66	    0
	 B2u	   48	    1	    1	    0	    46	    0
	 B3u	   48	    1	    0	    1	    46	    0
	Transforming integrals...
	IWL integrals will be deleted.
	(OO|OO)...
	Presorting SO-basis two-electron integrals.
	Sorting File: SO Ints (nn|nn) nbuckets = 1
	Constructing frozen core operators
	Starting AA/AB first half-transformation.
	Sorting AA/AB half-transformed integrals.
	Starting BB first half-transformation.
	Sorting BB half-transformed integrals.
	First half integral transformation complete.
	Starting AA second half-transformation.
	Starting AB second half-transformation.
	Starting BB second half-transformation.
	Two-electron integral transformation complete.
	(OO|OV)...
	Starting AA second half-transformation.
	Starting AB second half-transformation.
	Starting BB second half-transformation.
	Two-electron integral transformation complete.
	(OO|VV)...
	Starting AA second half-transformation.
	Starting AB second half-transformation.
	Starting BB second half-transformation.
	Two-electron integral transformation complete.
	(OV|OO)...
	Starting AA/AB first half-transformation.
	Sorting AA/AB half-transformed integrals.
	Starting BB first half-transformation.
	Sorting BB half-transformed integrals.
	First half integral transformation complete.
	Starting AA second half-transformation.
	Starting AB second half-transformation.
	Starting BB second half-transformation.
	Two-electron integral transformation complete.
	(OV|OV)...
	Starting AA second half-transformation.
	Starting AB second half-transformation.
	Starting BB second half-transformation.
	Two-electron integral transformation complete.
	(OV|VV)...

      * MP2 total energy                      = -681.419257541531692
      * CCSD total energy                     = -681.438827561215703
      * CCSD(T) total energy                     = -681.458390800154120
*** Psi4 exiting successfully. Buy a developer a beer!
