                               Psi4 1.2a1.dev939

  ==> Input File <==

--------------------------------------------------------------------------
# Any line starting with the # character is a comment line
memory 250000 mb
molecule molecule{
0 1
Si         0.0000000000        0.0000000000       -0.0000000000
H          1.2043721963        0.0000000000        0.8516197471
H         -1.2043721963        0.0000000000        0.8516197471
H          0.0000000000       -1.2043721963       -0.8516197471
H          0.0000000000        1.2043721963       -0.8516197471
}

set {
  reference rhf
  basis aug-cc-pv(6+d)z
  scf_type OUT_OF_CORE
  freeze_core true
}

energy('ccsd')
--------------------------------------------------------------------------

    Molecular point group: c2v

    Geometry (in Angstrom), charge = 0, multiplicity = 1:

       Center              X                  Y                   Z               Mass
    ------------   -----------------  -----------------  -----------------  -----------------
          SI         -0.000000000000    -0.000000000000    -0.000000000000    27.976926532460
           H          1.204372196300     0.000000000000     0.851619747100     1.007825032070
           H         -1.204372196300    -0.000000000000     0.851619747100     1.007825032070
           H          0.000000000000    -1.204372196300    -0.851619747100     1.007825032070
           H         -0.000000000000     1.204372196300    -0.851619747100     1.007825032070

  Charge       = 0
  Multiplicity = 1
  Basis Set: AUG-CC-PV(6+D)Z
    Blend: AUG-CC-PV(6+D)Z

    Orbital Energies (a.u.)
    -----------------------

    Doubly Occupied:

       1A1   -68.770677     2A1    -6.119418     3A1    -4.225722
       1B2    -4.225722     1B1    -4.225722     4A1    -0.730751
       2B2    -0.487327     5A1    -0.487327     2B1    -0.487327

  @RHF Final Energy:  -291.26860115356044

   => Energetics <=

    Nuclear Repulsion Energy =             21.4082731814827874
    One-Electron Energy =                -445.8337654259223086
    Two-Electron Energy =                 133.1568910908790428
    PCM Polarization Energy =               0.0000000000000000
    Total Energy =                       -291.2686011535604393
      * MP2 total energy                      = -291.427317238233229
      * CCSD total energy                     = -291.452051726303466
*** Psi4 exiting successfully. Buy a developer a beer!
