                               Psi4 1.2a1.dev939

  ==> Input File <==

--------------------------------------------------------------------------
# Any line starting with the # character is a comment line

memory 32000 mb

molecule molecule {
0 1
Si         0.0000000000        0.0000000000       -0.0000000000
H          1.2043721963        0.0000000000        0.8516197471
H         -1.2043721963        0.0000000000        0.8516197471
H          0.0000000000       -1.2043721963       -0.8516197471
H          0.0000000000        1.2043721963       -0.8516197471
}

set {
  reference rhf
  basis aug-cc-pv(Q+d)z
  scf_type OUT_OF_CORE
  freeze_core true
}

energy('ccsd')
--------------------------------------------------------------------------

    Molecular point group: c2v

    Geometry (in Angstrom), charge = 0, multiplicity = 1:

       Center              X                  Y                   Z               Mass
    ------------   -----------------  -----------------  -----------------  -----------------
          SI         -0.000000000000    -0.000000000000    -0.000000000000    27.976926532460
           H          1.204372196300     0.000000000000     0.851619747100     1.007825032070
           H         -1.204372196300    -0.000000000000     0.851619747100     1.007825032070
           H          0.000000000000    -1.204372196300    -0.851619747100     1.007825032070
           H         -0.000000000000     1.204372196300    -0.851619747100     1.007825032070

  Charge       = 0
  Multiplicity = 1
  Basis Set: AUG-CC-PV(Q+D)Z
    Blend: AUG-CC-PV(Q+D)Z

    Orbital Energies (a.u.)
    -----------------------

    Doubly Occupied:

       1A1   -68.769020     2A1    -6.119174     3A1    -4.225399
       1B1    -4.225399     1B2    -4.225399     4A1    -0.730797
       2B2    -0.487277     5A1    -0.487277     2B1    -0.487277

  @RHF Final Energy:  -291.26769554197267

   => Energetics <=

    Nuclear Repulsion Energy =             21.4082731814827874
    One-Electron Energy =                -445.8379032216446376
    Two-Electron Energy =                 133.1619344981891402
    Total Energy =                       -291.2676955419726710
      * MP2 total energy                      = -291.421685421657060
      * CCSD total energy                     = -291.448712251075165
*** Psi4 exiting successfully. Buy a developer a beer!
