                               Psi4 1.4a3.dev88

  ==> Input File <==

--------------------------------------------------------------------------
# Any line starting with the # character is a comment line
memory 250000 mb
molecule molecule{
-1 4
C          0.0000000000        0.0000000000        0.0000000000
}

set {
  reference uhf
  basis aug-cc-pV(6+d)Z
  scf_type OUT_OF_CORE
  freeze_core true
}

energy('ccsd(t)')
--------------------------------------------------------------------------

    Molecular point group: d2h
    Geometry (in Angstrom), charge = -1, multiplicity = 4:

       Center              X                  Y                   Z               Mass
    ------------   -----------------  -----------------  -----------------  -----------------
         C            0.000000000000     0.000000000000     0.000000000000    12.000000000000

  Charge       = -1
  Multiplicity = 4
  Basis Set: AUG-CC-PV(6+D)Z
    Blend: AUG-CC-PV(6+D)Z

    Orbital Energies [Eh]
    ---------------------

    Alpha Occupied:

       1Ag   -10.975019     2Ag    -0.525520     1B2u   -0.078108
       1B1u   -0.078108     1B3u   -0.078108

    Alpha Virtual:

       2B2u    0.180919     2B1u    0.180919     2B3u    0.180919
       3Ag     0.221664     4Ag     0.365606     1B3g    0.365606
       1B1g    0.365606     1B2g    0.365606     5Ag     0.365606
       3B2u    0.425319     3B1u    0.425319     3B3u    0.425319
       6Ag     0.552281     4B2u    0.679132     4B3u    0.679132
       4B1u    0.679132     5B2u    0.679132     1Au     0.679132
       5B1u    0.679132     5B3u    0.679132     2B2g    0.819713
       7Ag     0.819713     2B1g    0.819713     2B3g    0.819713
       8Ag     0.819713     6B2u    0.952036     6B1u    0.952036
       6B3u    0.952036     9Ag     1.434737    10Ag     1.505523
       3B3g    1.505523     3B1g    1.505523    11Ag     1.505523
       3B2g    1.505523     4B3g    1.505523     4B1g    1.505523
       4B2g    1.505523    12Ag     1.505523     7B2u    1.605914
       7B3u    1.605914     7B1u    1.605914     8B2u    1.605914
       2Au     1.605914     8B3u    1.605914     8B1u    1.605914
      13Ag     1.716354     5B3g    1.716354     5B1g    1.716354
       5B2g    1.716354    14Ag     1.716354     9B2u    2.108167
       9B1u    2.108167     9B3u    2.108167    10B2u    2.902173
      10B3u    2.902173    10B1u    2.902173     3Au     2.902173
      11B2u    2.902173    11B3u    2.902173    11B1u    2.902173
       4Au     2.902173    12B2u    2.902173    12B3u    2.902173
      12B1u    2.902173    13B2u    3.378898    13B1u    3.378898
      13B3u    3.378898    14B2u    3.378898     5Au     3.378898
      14B3u    3.378898    14B1u    3.378898    15Ag     3.532519
       6B1g    3.532519     6B3g    3.532519     6B2g    3.532519
      16Ag     3.532519     7B1g    3.532519     7B3g    3.532519
       7B2g    3.532519    17Ag     3.532519    18Ag     3.678627
       8B1g    3.678627     8B3g    3.678627     8B2g    3.678627
      19Ag     3.678627    20Ag     3.779279    15B2u    4.788887
      15B3u    4.788887    15B1u    4.788887    21Ag     5.648277
       9B1g    5.648277     9B3g    5.648277    22Ag     5.648277
       9B2g    5.648277    10B1g    5.648277    10B3g    5.648277
      23Ag     5.648277    10B2g    5.648277    11B1g    5.648277
      11B3g    5.648277    24Ag     5.648277    11B2g    5.648277
      16B2u    6.517446    16B3u    6.517446    16B1u    6.517446
       6Au     6.517446    17B2u    6.517446    17B3u    6.517446
      17B1u    6.517446     7Au     6.517446    18B2u    6.517446
      18B3u    6.517446    18B1u    6.517446    19B2u    7.009733
      19B3u    7.009733    19B1u    7.009733    20B2u    7.009733
       8Au     7.009733    20B3u    7.009733    20B1u    7.009733
      25Ag     7.692056    12B1g    7.692056    12B3g    7.692056
      12B2g    7.692056    26Ag     7.692056    13B1g    7.692056
      13B3g    7.692056    13B2g    7.692056    27Ag     7.692056
      28Ag     8.286307    14B3g    8.286307    14B1g    8.286307
      29Ag     8.286307    14B2g    8.286307    30Ag    11.095369
      31Ag    12.846682    15B2g   12.846682    15B3g   12.846682
      15B1g   12.846682    32Ag    12.846682    16B2g   12.846682
      16B3g   12.846682    16B1g   12.846682    33Ag    12.846682
      17B2g   12.846682    17B1g   12.846682    17B3g   12.846682
      34Ag    12.846682    21B2u   13.263446    21B1u   13.263446
      21B3u   13.263446    22B3u   14.890562    22B1u   14.890562
       9Au    14.890562    22B2u   14.890562    23B1u   14.890562
      23B3u   14.890562    10Au    14.890562    23B2u   14.890562
      24B1u   14.890562    24B3u   14.890562    24B2u   14.890562
      25B1u   15.022718    25B3u   15.022718    25B2u   15.022718
      11Au    15.022718    26B3u   15.022718    26B1u   15.022718
      26B2u   15.022718    18B2g   17.172866    35Ag    17.172866
      18B1g   17.172866    18B3g   17.172866    19B2g   17.172866
      36Ag    17.172866    19B1g   17.172866    19B3g   17.172866
      37Ag    17.172866    38Ag    19.634620    20B2g   19.634620
      20B3g   19.634620    20B1g   19.634620    39Ag    19.634620
      40Ag    53.960673

    Beta Occupied:

       1Ag   -10.926804     2Ag    -0.212860

    Beta Virtual:

       1B2u    0.177162     1B1u    0.177162     1B3u    0.177162
       3Ag     0.235515     2B2u    0.352709     2B1u    0.352709
       2B3u    0.352709     4Ag     0.377734     1B1g    0.377734
       1B3g    0.377734     1B2g    0.377734     5Ag     0.377734
       3B1u    0.555141     3B3u    0.555141     3B2u    0.555141
       6Ag     0.598188     4B2u    0.689682     4B3u    0.689682
       4B1u    0.689682     5B2u    0.689682     1Au     0.689682
       5B1u    0.689682     5B3u    0.689682     7Ag     0.875952
       2B1g    0.875952     2B3g    0.875952     2B2g    0.875952
       8Ag     0.875952     6B1u    1.046120     6B3u    1.046120
       6B2u    1.046120     9Ag     1.499059    10Ag     1.520039
       3B3g    1.520039     3B1g    1.520039    11Ag     1.520039
       3B2g    1.520039     4B1g    1.520039     4B3g    1.520039
      12Ag     1.520039     4B2g    1.520039     7B2u    1.639260
       7B3u    1.639260     7B1u    1.639260     8B2u    1.639260
       2Au     1.639260     8B3u    1.639260     8B1u    1.639260
       5B2g    1.807270    13Ag     1.807270     5B3g    1.807270
       5B1g    1.807270    14Ag     1.807270     9B1u    2.186959
       9B3u    2.186959     9B2u    2.186959    10B2u    2.917682
      10B3u    2.917682    10B1u    2.917682     3Au     2.917682
      11B2u    2.917682    11B3u    2.917682    11B1u    2.917682
       4Au     2.917682    12B2u    2.917682    12B3u    2.917682
      12B1u    2.917682    13B3u    3.430176    13B1u    3.430176
      13B2u    3.430176     5Au     3.430176    14B1u    3.430176
      14B3u    3.430176    14B2u    3.430176    15Ag     3.563011
       6B1g    3.563011     6B3g    3.563011     6B2g    3.563011
      16Ag     3.563011     7B1g    3.563011     7B3g    3.563011
       7B2g    3.563011    17Ag     3.563011     8B2g    3.762966
      18Ag     3.762966     8B1g    3.762966     8B3g    3.762966
      19Ag     3.762966    20Ag     3.842000    15B3u    4.852092
      15B1u    4.852092    15B2u    4.852092    21Ag     5.665227
       9B1g    5.665227     9B3g    5.665227    22Ag     5.665227
       9B2g    5.665227    10B1g    5.665227    10B3g    5.665227
      23Ag     5.665227    10B2g    5.665227    11B1g    5.665227
      11B3g    5.665227    11B2g    5.665227    24Ag     5.665227
      16B2u    6.543179    16B3u    6.543179    16B1u    6.543179
       6Au     6.543179    17B2u    6.543179    17B3u    6.543179
      17B1u    6.543179     7Au     6.543179    18B2u    6.543179
      18B3u    6.543179    18B1u    6.543179    19B3u    7.061867
      19B1u    7.061867    19B2u    7.061867     8Au     7.061867
      20B3u    7.061867    20B1u    7.061867    20B2u    7.061867
      12B2g    7.731223    25Ag     7.731223    12B1g    7.731223
      12B3g    7.731223    13B2g    7.731223    26Ag     7.731223
      13B1g    7.731223    13B3g    7.731223    27Ag     7.731223
      28Ag     8.346074    14B2g    8.346074    14B3g    8.346074
      14B1g    8.346074    29Ag     8.346074    30Ag    11.136854
      31Ag    12.869869    15B2g   12.869869    15B3g   12.869869
      15B1g   12.869869    32Ag    12.869869    16B2g   12.869869
      16B1g   12.869869    16B3g   12.869869    33Ag    12.869869
      17B2g   12.869869    17B1g   12.869869    17B3g   12.869869
      34Ag    12.869869    21B1u   13.301057    21B3u   13.301057
      21B2u   13.301057    22B3u   14.920733    22B1u   14.920733
       9Au    14.920733    22B2u   14.920733    23B1u   14.920733
      23B3u   14.920733    10Au    14.920733    23B2u   14.920733
      24B1u   14.920733    24B3u   14.920733    24B2u   14.920733
      25B1u   15.062873    25B3u   15.062873    25B2u   15.062873
      11Au    15.062873    26B3u   15.062873    26B1u   15.062873
      26B2u   15.062873    18B2g   17.207175    35Ag    17.207175
      18B1g   17.207175    18B3g   17.207175    19B2g   17.207175
      36Ag    17.207175    19B1g   17.207175    19B3g   17.207175
      37Ag    17.207175    38Ag    19.668401    20B2g   19.668401
      20B3g   19.668401    20B1g   19.668401    39Ag    19.668401
      40Ag    53.974202

    Final Occupation by Irrep:
             Ag   B1g   B2g   B3g    Au   B1u   B2u   B3u
    DOCC [     2,    0,    0,    0,    0,    0,    0,    0 ]
    SOCC [     0,    0,    0,    0,    0,    1,    1,    1 ]

  @UHF Final Energy:   -37.71030151872969

   => Energetics <=

    Nuclear Repulsion Energy =              0.0000000000000000
    One-Electron Energy =                 -52.5460755236550909
    Two-Electron Energy =                  14.8357740049254048
    Total Energy =                        -37.7103015187296862

  UHF NO Occupations:
  HONO-2 :    1B1u 1.0000000
  HONO-1 :    1B2u 1.0000000
  HONO-0 :    1B3u 1.0000000
  LUNO+0 :    3 Ag 0.0034651
  LUNO+1 :    4 Ag 0.0000034
  LUNO+2 :    5 Ag 0.0000000
  LUNO+3 :    2B1u 0.0000000

Computation Completed

Properties will be evaluated at   0.000000,   0.000000,   0.000000 [a0]

Properties computed using the SCF density matrix

  Nuclear Dipole Moment: [e a0]
     X:     0.0000      Y:     0.0000      Z:     0.0000

  Electronic Dipole Moment: [e a0]
     X:     0.0000      Y:     0.0000      Z:     0.0000

  Dipole Moment: [e a0]
     X:     0.0000      Y:     0.0000      Z:     0.0000     Total:     0.0000

  Dipole Moment: [D]
     X:     0.0000      Y:     0.0000      Z:     0.0000     Total:     0.0000

*** tstop() called on n411-011.vsc4.prov at Thu Jan 21 14:19:59 2021
Module time:
	user time   =     116.60 seconds =       1.94 minutes
	system time =       3.46 seconds =       0.06 minutes
	total time  =        105 seconds =       1.75 minutes
Total time:
	user time   =     116.60 seconds =       1.94 minutes
	system time =       3.46 seconds =       0.06 minutes
	total time  =        105 seconds =       1.75 minutes

*** tstart() called on n411-011.vsc4.prov
*** at Thu Jan 21 14:19:59 2021

	Wfn Parameters:
	--------------------
	Wavefunction         = CCSD_T
	Number of irreps     = 8
	Number of MOs        = 189
	Number of active MOs = 188
	AO-Basis             = NONE
	Semicanonical        = false
	Reference            = UHF
	Print Level          = 1

	IRREP	# MOs	# FZDC	# DOCC	# SOCC	# VIRT	# FZVR
	-----	-----	------	------	------	------	------
	 Ag	   40	    1	    1	    0	    38	    0
	 B1g	   20	    0	    0	    0	    20	    0
	 B2g	   20	    0	    0	    0	    20	    0
	 B3g	   20	    0	    0	    0	    20	    0
	 Au	   11	    0	    0	    0	    11	    0
	 B1u	   26	    0	    0	    1	    25	    0
	 B2u	   26	    0	    0	    1	    25	    0
	 B3u	   26	    0	    0	    1	    25	    0
	Transforming integrals...
	IWL integrals will be deleted.
	(OO|OO)...
	Presorting SO-basis two-electron integrals.
	Sorting File: SO Ints (nn|nn) nbuckets = 1
	Constructing frozen core operators
	Starting AA/AB first half-transformation.
	Sorting AA/AB half-transformed integrals.
	Starting BB first half-transformation.
	Sorting BB half-transformed integrals.
	First half integral transformation complete.
	Starting AA second half-transformation.
	Starting AB second half-transformation.
	Starting BB second half-transformation.
	Two-electron integral transformation complete.
	(OO|OV)...
	Starting AA second half-transformation.
	Starting AB second half-transformation.
	Starting BB second half-transformation.
	Two-electron integral transformation complete.
	(OO|VV)...
	Starting AA second half-transformation.
	Starting AB second half-transformation.
	Starting BB second half-transformation.
	Two-electron integral transformation complete.
	(OV|OO)...
	Starting AA/AB first half-transformation.
	Sorting AA/AB half-transformed integrals.
	Starting BB first half-transformation.
	Sorting BB half-transformed integrals.
	First half integral transformation complete.
	Starting AA second half-transformation.
	Starting AB second half-transformation.
	Starting BB second half-transformation.
	Two-electron integral transformation complete.
	(OV|OV)...
	Starting AA second half-transformation.
	Starting AB second half-transformation.
	Starting BB second half-transformation.
	Two-electron integral transformation complete.
	(OV|VV)...
	Starting AA second half-transformation.
	Starting AB second half-transformation.
	Starting BB second half-transformation.
	Two-electron integral transformation complete.
	(VV|OO)...
	Starting AA/AB first half-transformation.
	Sorting AA/AB half-transformed integrals.
	Starting BB first half-transformation.
	Sorting BB half-transformed integrals.
	First half integral transformation complete.
	Starting AA second half-transformation.
	Starting AB second half-transformation.
	Starting BB second half-transformation.
	Two-electron integral transformation complete.
	(VV|OV)...
	Starting AA second half-transformation.
	Starting AB second half-transformation.
	Starting BB second half-transformation.
	Two-electron integral transformation complete.
	(VV|VV)...
	Starting AA second half-transformation.
	Starting AB second half-transformation.
	Starting BB second half-transformation.
	Two-electron integral transformation complete.
	Frozen core energy     =    -32.35985702118798

	Size of irrep 0 of <AB|CD> integrals:      4.964 (MW) /     39.712 (MB)
	Size of irrep 1 of <AB|CD> integrals:      4.244 (MW) /     33.949 (MB)
	Size of irrep 2 of <AB|CD> integrals:      4.244 (MW) /     33.949 (MB)
	Size of irrep 3 of <AB|CD> integrals:      4.244 (MW) /     33.949 (MB)
	Size of irrep 4 of <AB|CD> integrals:      3.679 (MW) /     29.430 (MB)
	Size of irrep 5 of <AB|CD> integrals:      4.709 (MW) /     37.671 (MB)
	Size of irrep 6 of <AB|CD> integrals:      4.709 (MW) /     37.671 (MB)
	Size of irrep 7 of <AB|CD> integrals:      4.709 (MW) /     37.671 (MB)
	Total:                                    35.500 (MW) /    284.002 (MB)

	Size of irrep 0 of <ab|cd> integrals:      5.304 (MW) /     42.430 (MB)
	Size of irrep 1 of <ab|cd> integrals:      4.503 (MW) /     36.023 (MB)
	Size of irrep 2 of <ab|cd> integrals:      4.503 (MW) /     36.023 (MB)
	Size of irrep 3 of <ab|cd> integrals:      4.503 (MW) /     36.023 (MB)
	Size of irrep 4 of <ab|cd> integrals:      3.912 (MW) /     31.300 (MB)
	Size of irrep 5 of <ab|cd> integrals:      5.054 (MW) /     40.428 (MB)
	Size of irrep 6 of <ab|cd> integrals:      5.054 (MW) /     40.428 (MB)
	Size of irrep 7 of <ab|cd> integrals:      5.054 (MW) /     40.428 (MB)
	Total:                                    37.885 (MW) /    303.084 (MB)

	Size of irrep 0 of <Ab|Cd> integrals:     22.231 (MW) /    177.850 (MB)
	Size of irrep 1 of <Ab|Cd> integrals:     17.481 (MW) /    139.846 (MB)
	Size of irrep 2 of <Ab|Cd> integrals:     17.481 (MW) /    139.846 (MB)
	Size of irrep 3 of <Ab|Cd> integrals:     17.481 (MW) /    139.846 (MB)
	Size of irrep 4 of <Ab|Cd> integrals:     15.179 (MW) /    121.431 (MB)
	Size of irrep 5 of <Ab|Cd> integrals:     19.519 (MW) /    156.150 (MB)
	Size of irrep 6 of <Ab|Cd> integrals:     19.519 (MW) /    156.150 (MB)
	Size of irrep 7 of <Ab|Cd> integrals:     19.519 (MW) /    156.150 (MB)
	Total:                                   148.408 (MW) /   1187.268 (MB)

	Size of irrep 0 of <IA|BC> integrals:      0.524 (MW) /      4.195 (MB)
	Size of irrep 1 of <IA|BC> integrals:      0.334 (MW) /      2.670 (MB)
	Size of irrep 2 of <IA|BC> integrals:      0.334 (MW) /      2.670 (MB)
	Size of irrep 3 of <IA|BC> integrals:      0.334 (MW) /      2.670 (MB)
	Size of irrep 4 of <IA|BC> integrals:      0.272 (MW) /      2.179 (MB)
	Size of irrep 5 of <IA|BC> integrals:      0.447 (MW) /      3.576 (MB)
	Size of irrep 6 of <IA|BC> integrals:      0.447 (MW) /      3.576 (MB)
	Size of irrep 7 of <IA|BC> integrals:      0.447 (MW) /      3.576 (MB)
	Total:                                     3.139 (MW) /     25.111 (MB)

	Size of irrep 0 of <ia|bc> integrals:      0.182 (MW) /      1.457 (MB)
	Size of irrep 1 of <ia|bc> integrals:      0.085 (MW) /      0.679 (MB)
	Size of irrep 2 of <ia|bc> integrals:      0.085 (MW) /      0.679 (MB)
	Size of irrep 3 of <ia|bc> integrals:      0.085 (MW) /      0.679 (MB)
	Size of irrep 4 of <ia|bc> integrals:      0.044 (MW) /      0.348 (MB)
	Size of irrep 5 of <ia|bc> integrals:      0.117 (MW) /      0.935 (MB)
	Size of irrep 6 of <ia|bc> integrals:      0.117 (MW) /      0.935 (MB)
	Size of irrep 7 of <ia|bc> integrals:      0.117 (MW) /      0.935 (MB)
	Total:                                     0.831 (MW) /      6.648 (MB)

	Size of irrep 0 of <Ia|Bc> integrals:      0.547 (MW) /      4.376 (MB)
	Size of irrep 1 of <Ia|Bc> integrals:      0.347 (MW) /      2.776 (MB)
	Size of irrep 2 of <Ia|Bc> integrals:      0.347 (MW) /      2.776 (MB)
	Size of irrep 3 of <Ia|Bc> integrals:      0.347 (MW) /      2.776 (MB)
	Size of irrep 4 of <Ia|Bc> integrals:      0.277 (MW) /      2.213 (MB)
	Size of irrep 5 of <Ia|Bc> integrals:      0.459 (MW) /      3.676 (MB)
	Size of irrep 6 of <Ia|Bc> integrals:      0.459 (MW) /      3.676 (MB)
	Size of irrep 7 of <Ia|Bc> integrals:      0.459 (MW) /      3.676 (MB)
	Total:                                     3.243 (MW) /     25.944 (MB)

	Size of irrep 0 of <iA|bC> integrals:      0.179 (MW) /      1.433 (MB)
	Size of irrep 1 of <iA|bC> integrals:      0.084 (MW) /      0.669 (MB)
	Size of irrep 2 of <iA|bC> integrals:      0.084 (MW) /      0.669 (MB)
	Size of irrep 3 of <iA|bC> integrals:      0.084 (MW) /      0.669 (MB)
	Size of irrep 4 of <iA|bC> integrals:      0.043 (MW) /      0.343 (MB)
	Size of irrep 5 of <iA|bC> integrals:      0.110 (MW) /      0.884 (MB)
	Size of irrep 6 of <iA|bC> integrals:      0.110 (MW) /      0.884 (MB)
	Size of irrep 7 of <iA|bC> integrals:      0.110 (MW) /      0.884 (MB)
	Total:                                     0.804 (MW) /      6.434 (MB)

	Size of irrep 0 of tIjAb amplitudes:       0.005 (MW) /      0.038 (MB)
	Size of irrep 1 of tIjAb amplitudes:       0.000 (MW) /      0.000 (MB)
	Size of irrep 2 of tIjAb amplitudes:       0.000 (MW) /      0.000 (MB)
	Size of irrep 3 of tIjAb amplitudes:       0.000 (MW) /      0.000 (MB)
	Size of irrep 4 of tIjAb amplitudes:       0.000 (MW) /      0.000 (MB)
	Size of irrep 5 of tIjAb amplitudes:       0.004 (MW) /      0.035 (MB)
	Size of irrep 6 of tIjAb amplitudes:       0.004 (MW) /      0.035 (MB)
	Size of irrep 7 of tIjAb amplitudes:       0.004 (MW) /      0.035 (MB)
	Total:                                     0.018 (MW) /      0.144 (MB)

	Nuclear Rep. energy          =      0.00000000000000
	SCF energy                   =    -37.71030151872969
	One-electron energy          =     -9.72818483783020
	Two-electron (AA) energy     =      2.40703073439936
	Two-electron (BB) energy     =      0.00000000000000
	Two-electron (AB) energy     =      1.97070960588864
	Two-electron energy          =      4.37774034028800
	Reference energy             =    -37.71030151873018

*** tstop() called on n411-011.vsc4.prov at Thu Jan 21 14:21:01 2021
Module time:
	user time   =      16.84 seconds =       0.28 minutes
	system time =      11.77 seconds =       0.20 minutes
	total time  =         62 seconds =       1.03 minutes
Total time:
	user time   =     133.44 seconds =       2.22 minutes
	system time =      15.23 seconds =       0.25 minutes
	total time  =        167 seconds =       2.78 minutes
            **************************
            *                        *
            *        CCENERGY        *
            *                        *
            **************************

    Nuclear Rep. energy (wfn)     =    0.000000000000000
    SCF energy          (wfn)     =  -37.710301518729686
    Reference energy    (file100) =  -37.710301518730176

    Input parameters:
    -----------------
    Wave function   =     CCSD_T

      * MP2 total energy                      =  -37.816763182853258
      * CCSD total energy                     =  -37.829233144970075
      * CCSD(T) total energy                     =  -37.834633252941281
*** Psi4 exiting successfully. Buy a developer a beer!
