                               Psi4 1.4a3.dev88

  ==> Input File <==

--------------------------------------------------------------------------
# Any line starting with the # character is a comment line
memory 250000 mb
molecule molecule{
-1 4
C          0.0000000000        0.0000000000        0.0000000000
}

set {
  reference uhf
  basis aug-cc-pv(q+d)z
  scf_type OUT_OF_CORE
  freeze_core true
}

energy('ccsd(t)')
--------------------------------------------------------------------------

    Molecular point group: d2h
    Geometry (in Angstrom), charge = -1, multiplicity = 4:

       Center              X                  Y                   Z               Mass
    ------------   -----------------  -----------------  -----------------  -----------------
         C            0.000000000000     0.000000000000     0.000000000000    12.000000000000

  Charge       = -1
  Multiplicity = 4
  Basis Set: AUG-CC-PV(Q+D)Z
    Blend: AUG-CC-PV(Q+D)Z

    Orbital Energies [Eh]
    ---------------------

    Alpha Occupied:

       1Ag   -10.975315     2Ag    -0.525530     1B3u   -0.078030
       1B1u   -0.078030     1B2u   -0.078030

    Alpha Virtual:

       2B3u    0.239823     2B1u    0.239823     2B2u    0.239823
       3Ag     0.257776     4Ag     0.428291     1B3g    0.428291
       1B1g    0.428291     1B2g    0.428291     5Ag     0.428291
       3B3u    0.675952     3B1u    0.675952     3B2u    0.675952
       6Ag     0.746254     4B3u    1.008178     4B2u    1.008178
       4B1u    1.008178     1Au     1.008178     5B3u    1.008178
       5B2u    1.008178     5B1u    1.008178     7Ag     1.035469
       2B2g    1.035469     2B1g    1.035469     2B3g    1.035469
       8Ag     1.035469     6B3u    1.892563     6B2u    1.892563
       6B1u    1.892563     9Ag     2.426294    10Ag     2.428240
       3B1g    2.428240     3B3g    2.428240     3B2g    2.428240
      11Ag     2.428240     4B1g    2.428240     4B3g    2.428240
       4B2g    2.428240    12Ag     2.428240    13Ag     2.522087
       5B2g    2.522087     5B1g    2.522087     5B3g    2.522087
      14Ag     2.522087     7B3u    2.591739     7B2u    2.591739
       7B1u    2.591739     2Au     2.591739     8B3u    2.591739
       8B2u    2.591739     8B1u    2.591739     9B3u    6.143746
       9B2u    6.143746     9B1u    6.143746    15Ag     6.287837
       6B3g    6.287837     6B1g    6.287837     6B2g    6.287837
      16Ag     6.287837     7B3g    6.287837     7B1g    6.287837
       7B2g    6.287837    17Ag     6.287837    18Ag     6.719184
       8B1g    6.719184     8B3g    6.719184     8B2g    6.719184
      19Ag     6.719184    10B2u    6.828074    10B1u    6.828074
      10B3u    6.828074     3Au     6.828074    11B2u    6.828074
      11B1u    6.828074    11B3u    6.828074    20Ag    20.810708

    Beta Occupied:

       1Ag   -10.926818     2Ag    -0.212899

    Beta Virtual:

       1B3u    0.226509     1B1u    0.226509     1B2u    0.226509
       3Ag     0.279463     2B2u    0.433643     2B1u    0.433643
       2B3u    0.433643     4Ag     0.448561     1B1g    0.448561
       1B2g    0.448561     1B3g    0.448561     5Ag     0.448561
       3B2u    0.804453     3B1u    0.804453     3B3u    0.804453
       6Ag     0.810208     4B2u    1.031728     4B3u    1.031728
       4B1u    1.031728     1Au     1.031728     5B2u    1.031728
       5B3u    1.031728     5B1u    1.031728     7Ag     1.118262
       2B1g    1.118262     2B3g    1.118262     2B2g    1.118262
       8Ag     1.118262     6B2u    1.995405     6B1u    1.995405
       6B3u    1.995405     9Ag     2.456411     3B1g    2.456411
       3B3g    2.456411     3B2g    2.456411    10Ag     2.456411
       4B1g    2.456411     4B3g    2.456411     4B2g    2.456411
      11Ag     2.456411    12Ag     2.506702    13Ag     2.630405
       5B3g    2.630405     5B1g    2.630405     5B2g    2.630405
      14Ag     2.630405     7B2u    2.647910     7B1u    2.647910
       7B3u    2.647910     2Au     2.647910     8B2u    2.647910
       8B1u    2.647910     8B3u    2.647910     9B2u    6.209566
       9B1u    6.209566     9B3u    6.209566    15Ag     6.332441
       6B3g    6.332441     6B1g    6.332441     6B2g    6.332441
      16Ag     6.332441     7B3g    6.332441     7B1g    6.332441
       7B2g    6.332441    17Ag     6.332441    18Ag     6.796562
       8B3g    6.796562     8B1g    6.796562     8B2g    6.796562
      19Ag     6.796562    10B2u    6.893070    10B1u    6.893070
      10B3u    6.893070     3Au     6.893070    11B2u    6.893070
      11B1u    6.893070    11B3u    6.893070    20Ag    20.845436

    Final Occupation by Irrep:
             Ag   B1g   B2g   B3g    Au   B1u   B2u   B3u
    DOCC [     2,    0,    0,    0,    0,    0,    0,    0 ]
    SOCC [     0,    0,    0,    0,    0,    1,    1,    1 ]

  @UHF Final Energy:   -37.70995033839753

   => Energetics <=

    Nuclear Repulsion Energy =              0.0000000000000000
    One-Electron Energy =                 -52.5452492851433135
    Two-Electron Energy =                  14.8352989467457768
    Total Energy =                        -37.7099503383975332

  UHF NO Occupations:
  HONO-2 :    1B2u 1.0000000
  HONO-1 :    1B1u 1.0000000
  HONO-0 :    1B3u 1.0000000
  LUNO+0 :    3 Ag 0.0034565
  LUNO+1 :    4 Ag 0.0000031
  LUNO+2 :    5 Ag 0.0000000
  LUNO+3 :    2B3u 0.0000000

Computation Completed

Properties will be evaluated at   0.000000,   0.000000,   0.000000 [a0]

Properties computed using the SCF density matrix

  Nuclear Dipole Moment: [e a0]
     X:     0.0000      Y:     0.0000      Z:     0.0000

  Electronic Dipole Moment: [e a0]
     X:     0.0000      Y:     0.0000      Z:     0.0000

  Dipole Moment: [e a0]
     X:     0.0000      Y:     0.0000      Z:     0.0000     Total:     0.0000

  Dipole Moment: [D]
     X:     0.0000      Y:     0.0000      Z:     0.0000     Total:     0.0000

*** tstop() called on n412-052.vsc4.prov at Wed Jan 20 20:49:39 2021
Module time:
	user time   =      18.27 seconds =       0.30 minutes
	system time =       0.53 seconds =       0.01 minutes
	total time  =          3 seconds =       0.05 minutes
Total time:
	user time   =      18.27 seconds =       0.30 minutes
	system time =       0.53 seconds =       0.01 minutes
	total time  =          3 seconds =       0.05 minutes

*** tstart() called on n412-052.vsc4.prov
*** at Wed Jan 20 20:49:39 2021

	Wfn Parameters:
	--------------------
	Wavefunction         = CCSD_T
	Number of irreps     = 8
	Number of MOs        = 80
	Number of active MOs = 79
	AO-Basis             = NONE
	Semicanonical        = false
	Reference            = UHF
	Print Level          = 1

	IRREP	# MOs	# FZDC	# DOCC	# SOCC	# VIRT	# FZVR
	-----	-----	------	------	------	------	------
	 Ag	   20	    1	    1	    0	    18	    0
	 B1g	   8	    0	    0	    0	    8	    0
	 B2g	   8	    0	    0	    0	    8	    0
	 B3g	   8	    0	    0	    0	    8	    0
	 Au	   3	    0	    0	    0	    3	    0
	 B1u	   11	    0	    0	    1	    10	    0
	 B2u	   11	    0	    0	    1	    10	    0
	 B3u	   11	    0	    0	    1	    10	    0
	Transforming integrals...
	IWL integrals will be deleted.
	(OO|OO)...
	Presorting SO-basis two-electron integrals.
	Sorting File: SO Ints (nn|nn) nbuckets = 1
	Constructing frozen core operators
	Starting AA/AB first half-transformation.
	Sorting AA/AB half-transformed integrals.
	Starting BB first half-transformation.
	Sorting BB half-transformed integrals.
	First half integral transformation complete.
	Starting AA second half-transformation.
	Starting AB second half-transformation.
	Starting BB second half-transformation.
	Two-electron integral transformation complete.
	(OO|OV)...
	Starting AA second half-transformation.
	Starting AB second half-transformation.
	Starting BB second half-transformation.
	Two-electron integral transformation complete.
	(OO|VV)...
	Starting AA second half-transformation.
	Starting AB second half-transformation.
	Starting BB second half-transformation.
	Two-electron integral transformation complete.
	(OV|OO)...
	Starting AA/AB first half-transformation.
	Sorting AA/AB half-transformed integrals.
	Starting BB first half-transformation.
	Sorting BB half-transformed integrals.
	First half integral transformation complete.
	Starting AA second half-transformation.
	Starting AB second half-transformation.
	Starting BB second half-transformation.
	Two-electron integral transformation complete.
	(OV|OV)...
	Starting AA second half-transformation.
	Starting AB second half-transformation.
	Starting BB second half-transformation.
	Two-electron integral transformation complete.
	(OV|VV)...
	Starting AA second half-transformation.
	Starting AB second half-transformation.
	Starting BB second half-transformation.
	Two-electron integral transformation complete.
	(VV|OO)...
	Starting AA/AB first half-transformation.
	Sorting AA/AB half-transformed integrals.
	Starting BB first half-transformation.
	Sorting BB half-transformed integrals.
	First half integral transformation complete.
	Starting AA second half-transformation.
	Starting AB second half-transformation.
	Starting BB second half-transformation.
	Two-electron integral transformation complete.
	(VV|OV)...
	Starting AA second half-transformation.
	Starting AB second half-transformation.
	Starting BB second half-transformation.
	Two-electron integral transformation complete.
	(VV|VV)...
	Starting AA second half-transformation.
	Starting AB second half-transformation.
	Starting BB second half-transformation.
	Two-electron integral transformation complete.
	Frozen core energy     =    -32.35976856144796

	Size of irrep 0 of <AB|CD> integrals:      0.141 (MW) /      1.125 (MB)
	Size of irrep 1 of <AB|CD> integrals:      0.114 (MW) /      0.914 (MB)
	Size of irrep 2 of <AB|CD> integrals:      0.114 (MW) /      0.914 (MB)
	Size of irrep 3 of <AB|CD> integrals:      0.114 (MW) /      0.914 (MB)
	Size of irrep 4 of <AB|CD> integrals:      0.086 (MW) /      0.691 (MB)
	Size of irrep 5 of <AB|CD> integrals:      0.132 (MW) /      1.060 (MB)
	Size of irrep 6 of <AB|CD> integrals:      0.132 (MW) /      1.060 (MB)
	Size of irrep 7 of <AB|CD> integrals:      0.132 (MW) /      1.060 (MB)
	Total:                                     0.967 (MW) /      7.738 (MB)

	Size of irrep 0 of <ab|cd> integrals:      0.164 (MW) /      1.312 (MB)
	Size of irrep 1 of <ab|cd> integrals:      0.131 (MW) /      1.048 (MB)
	Size of irrep 2 of <ab|cd> integrals:      0.131 (MW) /      1.048 (MB)
	Size of irrep 3 of <ab|cd> integrals:      0.131 (MW) /      1.048 (MB)
	Size of irrep 4 of <ab|cd> integrals:      0.101 (MW) /      0.809 (MB)
	Size of irrep 5 of <ab|cd> integrals:      0.158 (MW) /      1.267 (MB)
	Size of irrep 6 of <ab|cd> integrals:      0.158 (MW) /      1.267 (MB)
	Size of irrep 7 of <ab|cd> integrals:      0.158 (MW) /      1.267 (MB)
	Total:                                     1.133 (MW) /      9.068 (MB)

	Size of irrep 0 of <Ab|Cd> integrals:      0.731 (MW) /      5.848 (MB)
	Size of irrep 1 of <Ab|Cd> integrals:      0.489 (MW) /      3.909 (MB)
	Size of irrep 2 of <Ab|Cd> integrals:      0.489 (MW) /      3.909 (MB)
	Size of irrep 3 of <Ab|Cd> integrals:      0.489 (MW) /      3.909 (MB)
	Size of irrep 4 of <Ab|Cd> integrals:      0.375 (MW) /      2.996 (MB)
	Size of irrep 5 of <Ab|Cd> integrals:      0.581 (MW) /      4.645 (MB)
	Size of irrep 6 of <Ab|Cd> integrals:      0.581 (MW) /      4.645 (MB)
	Size of irrep 7 of <Ab|Cd> integrals:      0.581 (MW) /      4.645 (MB)
	Total:                                     4.313 (MW) /     34.506 (MB)

	Size of irrep 0 of <IA|BC> integrals:      0.040 (MW) /      0.317 (MB)
	Size of irrep 1 of <IA|BC> integrals:      0.021 (MW) /      0.168 (MB)
	Size of irrep 2 of <IA|BC> integrals:      0.021 (MW) /      0.168 (MB)
	Size of irrep 3 of <IA|BC> integrals:      0.021 (MW) /      0.168 (MB)
	Size of irrep 4 of <IA|BC> integrals:      0.016 (MW) /      0.127 (MB)
	Size of irrep 5 of <IA|BC> integrals:      0.032 (MW) /      0.256 (MB)
	Size of irrep 6 of <IA|BC> integrals:      0.032 (MW) /      0.256 (MB)
	Size of irrep 7 of <IA|BC> integrals:      0.032 (MW) /      0.256 (MB)
	Total:                                     0.214 (MW) /      1.716 (MB)

	Size of irrep 0 of <ia|bc> integrals:      0.016 (MW) /      0.128 (MB)
	Size of irrep 1 of <ia|bc> integrals:      0.006 (MW) /      0.046 (MB)
	Size of irrep 2 of <ia|bc> integrals:      0.006 (MW) /      0.046 (MB)
	Size of irrep 3 of <ia|bc> integrals:      0.006 (MW) /      0.046 (MB)
	Size of irrep 4 of <ia|bc> integrals:      0.002 (MW) /      0.015 (MB)
	Size of irrep 5 of <ia|bc> integrals:      0.009 (MW) /      0.070 (MB)
	Size of irrep 6 of <ia|bc> integrals:      0.009 (MW) /      0.070 (MB)
	Size of irrep 7 of <ia|bc> integrals:      0.009 (MW) /      0.070 (MB)
	Total:                                     0.062 (MW) /      0.492 (MB)

	Size of irrep 0 of <Ia|Bc> integrals:      0.044 (MW) /      0.349 (MB)
	Size of irrep 1 of <Ia|Bc> integrals:      0.023 (MW) /      0.185 (MB)
	Size of irrep 2 of <Ia|Bc> integrals:      0.023 (MW) /      0.185 (MB)
	Size of irrep 3 of <Ia|Bc> integrals:      0.023 (MW) /      0.185 (MB)
	Size of irrep 4 of <Ia|Bc> integrals:      0.017 (MW) /      0.132 (MB)
	Size of irrep 5 of <Ia|Bc> integrals:      0.034 (MW) /      0.274 (MB)
	Size of irrep 6 of <Ia|Bc> integrals:      0.034 (MW) /      0.274 (MB)
	Size of irrep 7 of <Ia|Bc> integrals:      0.034 (MW) /      0.274 (MB)
	Total:                                     0.232 (MW) /      1.858 (MB)

	Size of irrep 0 of <iA|bC> integrals:      0.015 (MW) /      0.123 (MB)
	Size of irrep 1 of <iA|bC> integrals:      0.006 (MW) /      0.045 (MB)
	Size of irrep 2 of <iA|bC> integrals:      0.006 (MW) /      0.045 (MB)
	Size of irrep 3 of <iA|bC> integrals:      0.006 (MW) /      0.045 (MB)
	Size of irrep 4 of <iA|bC> integrals:      0.002 (MW) /      0.015 (MB)
	Size of irrep 5 of <iA|bC> integrals:      0.008 (MW) /      0.061 (MB)
	Size of irrep 6 of <iA|bC> integrals:      0.008 (MW) /      0.061 (MB)
	Size of irrep 7 of <iA|bC> integrals:      0.008 (MW) /      0.061 (MB)
	Total:                                     0.057 (MW) /      0.455 (MB)

	Size of irrep 0 of tIjAb amplitudes:       0.001 (MW) /      0.007 (MB)
	Size of irrep 1 of tIjAb amplitudes:       0.000 (MW) /      0.000 (MB)
	Size of irrep 2 of tIjAb amplitudes:       0.000 (MW) /      0.000 (MB)
	Size of irrep 3 of tIjAb amplitudes:       0.000 (MW) /      0.000 (MB)
	Size of irrep 4 of tIjAb amplitudes:       0.000 (MW) /      0.000 (MB)
	Size of irrep 5 of tIjAb amplitudes:       0.001 (MW) /      0.006 (MB)
	Size of irrep 6 of tIjAb amplitudes:       0.001 (MW) /      0.006 (MB)
	Size of irrep 7 of tIjAb amplitudes:       0.001 (MW) /      0.006 (MB)
	Total:                                     0.003 (MW) /      0.025 (MB)

	Nuclear Rep. energy          =      0.00000000000000
	SCF energy                   =    -37.70995033839753
	One-electron energy          =     -9.72784412386215
	Two-electron (AA) energy     =      2.40692076814206
	Two-electron (BB) energy     =      0.00000000000000
	Two-electron (AB) energy     =      1.97074157877044
	Two-electron energy          =      4.37766234691250
	Reference energy             =    -37.70995033839760

*** tstop() called on n412-052.vsc4.prov at Wed Jan 20 20:49:44 2021
Module time:
	user time   =       0.68 seconds =       0.01 minutes
	system time =       0.61 seconds =       0.01 minutes
	total time  =          5 seconds =       0.08 minutes
Total time:
	user time   =      18.95 seconds =       0.32 minutes
	system time =       1.14 seconds =       0.02 minutes
	total time  =          8 seconds =       0.13 minutes
            **************************
            *                        *
            *        CCENERGY        *
            *                        *
            **************************

    Nuclear Rep. energy (wfn)     =    0.000000000000000
    SCF energy          (wfn)     =  -37.709950338397533
    Reference energy    (file100) =  -37.709950338397604

    Input parameters:
    -----------------
    Wave function   =     CCSD_T
    Reference wfn   =     UHF
    Brueckner       =     No
    Memory (Mbytes) =     250000.0
    Maxiter         =     50
    R_Convergence   =     1.0e-07
    E_Convergence   =     1.0e-06
    Restart         =     Yes
    DIIS            =     Yes
    AO Basis        =     NONE
    ABCD            =     NEW
    Cache Level     =     2
    Cache Type      =     LRU
    Print Level     =     1
    Num. of threads =     48
    # Amps to Print =     10
    Print MP2 Amps? =     No
    Analyze T2 Amps =     No
    Print Pair Ener =     No
    Local CC        =     No
    SCS-MP2         =     False
    SCSN-MP2        =     False
    SCS-CCSD        =     False

MP2 correlation energy -0.1031957816880442
                Solving CC Amplitude Equations
                ------------------------------
  Iter             Energy              RMS        T1Diag      D1Diag    New D1Diag    D2Diag
  ----     ---------------------    ---------   ----------  ----------  ----------   --------
     0        -0.103195781688044    0.000e+00    0.000000    0.000000    0.000000    0.000000
     1        -0.112970347704441    4.437e-02    0.011856    0.000000    0.000000    0.000000
     2        -0.116547834768914    1.917e-02    0.018753    0.000000    0.000000    0.000000
     3        -0.117255887044776    1.018e-02    0.024636    0.000000    0.000000    0.000000
     4        -0.117176961033423    4.136e-03    0.027914    0.000000    0.000000    0.000000
     5        -0.117170224423820    1.096e-03    0.028617    0.000000    0.000000    0.000000
     6        -0.117164652023986    2.860e-04    0.028628    0.000000    0.000000    0.000000
     7        -0.117168480017936    1.175e-04    0.028629    0.000000    0.000000    0.000000
     8        -0.117168480783560    4.744e-05    0.028620    0.000000    0.000000    0.000000
     9        -0.117168569481093    1.675e-05    0.028611    0.000000    0.000000    0.000000
    10        -0.117168860309612    5.086e-06    0.028611    0.000000    0.000000    0.000000
    11        -0.117168864310773    1.538e-06    0.028610    0.000000    0.000000    0.000000
    12        -0.117168851841557    4.144e-07    0.028610    0.000000    0.000000    0.000000
    13        -0.117168847285777    8.047e-08    0.028610    0.000000    0.000000    0.000000

    Iterations converged.

    Largest TIA Amplitudes:
              3  65        -0.0345903667
              2  55        -0.0345903663
              1  45        -0.0345903662
              0   0         0.0088791096
              2  59         0.0063581165
              1  49         0.0063581164
              3  69         0.0063581163
              0   6        -0.0034908347
              3  66        -0.0014046868
              1  46        -0.0014046863

    Largest Tia Amplitudes:
              0   3         0.0133463391
              0   0        -0.0076495333
              0   9        -0.0066427235
              0  17         0.0001166638

    Largest TIJAB Amplitudes:
      2   1  56  46        -0.0336817445
      3   2  66  56        -0.0336817445
      3   1  66  46        -0.0336817444
      2   1  55  45        -0.0311174313
      3   2  65  55        -0.0311174310
      3   1  65  45        -0.0311174290
      2   1  55  46        -0.0292091276
      3   2  66  55        -0.0292091274
      2   1  56  45        -0.0292091262

      * MP2 total energy                      =  -37.813146120085648
      * CCSD total energy                     =  -37.827119185683379
      * CCSD(T) total energy                     =  -37.832310866144795
*** Psi4 exiting successfully. Buy a developer a beer!
