                               Psi4 1.4a3.dev88

  ==> Input File <==

--------------------------------------------------------------------------
# Any line starting with the # character is a comment line
memory 250000 mb
molecule molecule{
-1 4
C          0.0000000000        0.0000000000        0.0000000000
}

set {
  reference uhf
  basis aug-cc-pV(d+d)Z
  scf_type OUT_OF_CORE
  freeze_core true
}

energy('ccsd(t)')
--------------------------------------------------------------------------

    Molecular point group: d2h
    Geometry (in Angstrom), charge = -1, multiplicity = 4:

       Center              X                  Y                   Z               Mass
    ------------   -----------------  -----------------  -----------------  -----------------
         C            0.000000000000     0.000000000000     0.000000000000    12.000000000000

  Charge       = -1
  Multiplicity = 4
  Basis Set: AUG-CC-PV(D+D)Z
    Blend: AUG-CC-PV(D+D)Z

    Orbital Energies [Eh]
    ---------------------

    Alpha Occupied:

       1Ag   -10.979985     2Ag    -0.526665     1B1u   -0.077548
       1B2u   -0.077548     1B3u   -0.077548

    Alpha Virtual:

       2B2u    0.299470     2B1u    0.299470     2B3u    0.299470
       3Ag     0.304899     4Ag     0.683390     1B1g    0.683390
       5Ag     0.683390     1B2g    0.683390     1B3g    0.683390
       3B1u    1.062307     3B2u    1.062307     3B3u    1.062307
       6Ag     1.258587     2B1g    1.952717     7Ag     1.952717
       8Ag     1.952717     2B2g    1.952717     2B3g    1.952717

    Beta Occupied:

       1Ag   -10.930207     2Ag    -0.215071

    Beta Virtual:

       1B1u    0.267535     1B2u    0.267535     1B3u    0.267535
       3Ag     0.340448     2B1u    0.499181     2B2u    0.499181
       2B3u    0.499181     1B1g    0.745517     1B2g    0.745517
       1B3g    0.745517     4Ag     0.745517     5Ag     0.745517
       3B1u    1.206396     3B2u    1.206396     3B3u    1.206396
       6Ag     1.348770     7Ag     2.079596     2B1g    2.079596
       8Ag     2.079596     2B2g    2.079596     2B3g    2.079596

    Final Occupation by Irrep:
             Ag   B1g   B2g   B3g    Au   B1u   B2u   B3u
    DOCC [     2,    0,    0,    0,    0,    0,    0,    0 ]
    SOCC [     0,    0,    0,    0,    0,    1,    1,    1 ]

  @UHF Final Energy:   -37.70495001489284

   => Energetics <=

    Nuclear Repulsion Energy =              0.0000000000000000
    One-Electron Energy =                 -52.5253256470808338
    Two-Electron Energy =                  14.8203756321879858
    Total Energy =                        -37.7049500148928445

  UHF NO Occupations:
  HONO-2 :    1B3u 1.0000000
  HONO-1 :    1B2u 1.0000000
  HONO-0 :    1B1u 1.0000000
  LUNO+0 :    3 Ag 0.0032897
  LUNO+1 :    4 Ag 0.0000016
  LUNO+2 :    5 Ag 0.0000000
  LUNO+3 :    2B3u 0.0000000

Computation Completed

Properties will be evaluated at   0.000000,   0.000000,   0.000000 [a0]

Properties computed using the SCF density matrix

  Nuclear Dipole Moment: [e a0]
     X:     0.0000      Y:     0.0000      Z:     0.0000

  Electronic Dipole Moment: [e a0]
     X:     0.0000      Y:     0.0000      Z:     0.0000

  Dipole Moment: [e a0]
     X:     0.0000      Y:     0.0000      Z:     0.0000     Total:     0.0000

  Dipole Moment: [D]
     X:     0.0000      Y:     0.0000      Z:     0.0000     Total:     0.0000

*** tstop() called on n412-039.vsc4.prov at Tue Jan 26 18:15:03 2021
Module time:
	user time   =       6.27 seconds =       0.10 minutes
	system time =       0.23 seconds =       0.00 minutes
	total time  =          0 seconds =       0.00 minutes
Total time:
	user time   =       6.27 seconds =       0.10 minutes
	system time =       0.23 seconds =       0.00 minutes
	total time  =          0 seconds =       0.00 minutes

*** tstart() called on n412-039.vsc4.prov
*** at Tue Jan 26 18:15:03 2021

	Wfn Parameters:
	--------------------
	Wavefunction         = CCSD_T
	Number of irreps     = 8
	Number of MOs        = 23
	Number of active MOs = 22
	AO-Basis             = NONE
	Semicanonical        = false
	Reference            = UHF
	Print Level          = 1

	IRREP	# MOs	# FZDC	# DOCC	# SOCC	# VIRT	# FZVR
	-----	-----	------	------	------	------	------
	 Ag	   8	    1	    1	    0	    6	    0
	 B1g	   2	    0	    0	    0	    2	    0
	 B2g	   2	    0	    0	    0	    2	    0
	 B3g	   2	    0	    0	    0	    2	    0
	 Au	   0	    0	    0	    0	    0	    0
	 B1u	   3	    0	    0	    1	    2	    0
	 B2u	   3	    0	    0	    1	    2	    0
	 B3u	   3	    0	    0	    1	    2	    0
	Transforming integrals...
	IWL integrals will be deleted.
	(OO|OO)...
	Presorting SO-basis two-electron integrals.
	Sorting File: SO Ints (nn|nn) nbuckets = 1
	Constructing frozen core operators
	Starting AA/AB first half-transformation.
	Sorting AA/AB half-transformed integrals.
	Starting BB first half-transformation.
	Sorting BB half-transformed integrals.
	First half integral transformation complete.
	Starting AA second half-transformation.
	Starting AB second half-transformation.
	Starting BB second half-transformation.
	Two-electron integral transformation complete.
	(OO|OV)...
	Starting AA second half-transformation.
	Starting AB second half-transformation.
	Starting BB second half-transformation.
	Two-electron integral transformation complete.
	(OO|VV)...
	Starting AA second half-transformation.
	Starting AB second half-transformation.
	Starting BB second half-transformation.
	Two-electron integral transformation complete.
	(OV|OO)...
	Starting AA/AB first half-transformation.
	Sorting AA/AB half-transformed integrals.
	Starting BB first half-transformation.
	Sorting BB half-transformed integrals.
	First half integral transformation complete.
	Starting AA second half-transformation.
	Starting AB second half-transformation.
	Starting BB second half-transformation.
	Two-electron integral transformation complete.
	(OV|OV)...
	Starting AA second half-transformation.
	Starting AB second half-transformation.
	Starting BB second half-transformation.
	Two-electron integral transformation complete.
	(OV|VV)...
	Starting AA second half-transformation.
	Starting AB second half-transformation.
	Starting BB second half-transformation.
	Two-electron integral transformation complete.
	(VV|OO)...
	Starting AA/AB first half-transformation.
	Sorting AA/AB half-transformed integrals.
	Starting BB first half-transformation.
	Sorting BB half-transformed integrals.
	First half integral transformation complete.
	Starting AA second half-transformation.
	Starting AB second half-transformation.
	Starting BB second half-transformation.
	Two-electron integral transformation complete.
	(VV|OV)...
	Starting AA second half-transformation.
	Starting AB second half-transformation.
	Starting BB second half-transformation.
	Two-electron integral transformation complete.
	(VV|VV)...
	Starting AA second half-transformation.
	Starting AB second half-transformation.
	Starting BB second half-transformation.
	Two-electron integral transformation complete.
	Frozen core energy     =    -32.35889484111921

	Size of irrep 0 of <AB|CD> integrals:      0.000 (MW) /      0.004 (MB)
	Size of irrep 1 of <AB|CD> integrals:      0.000 (MW) /      0.003 (MB)
	Size of irrep 2 of <AB|CD> integrals:      0.000 (MW) /      0.003 (MB)
	Size of irrep 3 of <AB|CD> integrals:      0.000 (MW) /      0.003 (MB)
	Size of irrep 4 of <AB|CD> integrals:      0.000 (MW) /      0.001 (MB)
	Size of irrep 5 of <AB|CD> integrals:      0.000 (MW) /      0.003 (MB)
	Size of irrep 6 of <AB|CD> integrals:      0.000 (MW) /      0.003 (MB)
	Size of irrep 7 of <AB|CD> integrals:      0.000 (MW) /      0.003 (MB)
	Total:                                     0.003 (MW) /      0.024 (MB)

	Size of irrep 0 of <ab|cd> integrals:      0.001 (MW) /      0.006 (MB)
	Size of irrep 1 of <ab|cd> integrals:      0.001 (MW) /      0.005 (MB)
	Size of irrep 2 of <ab|cd> integrals:      0.001 (MW) /      0.005 (MB)
	Size of irrep 3 of <ab|cd> integrals:      0.001 (MW) /      0.005 (MB)
	Size of irrep 4 of <ab|cd> integrals:      0.000 (MW) /      0.003 (MB)
	Size of irrep 5 of <ab|cd> integrals:      0.001 (MW) /      0.007 (MB)
	Size of irrep 6 of <ab|cd> integrals:      0.001 (MW) /      0.007 (MB)
	Size of irrep 7 of <ab|cd> integrals:      0.001 (MW) /      0.007 (MB)
	Total:                                     0.006 (MW) /      0.045 (MB)

	Size of irrep 0 of <Ab|Cd> integrals:      0.004 (MW) /      0.035 (MB)
	Size of irrep 1 of <Ab|Cd> integrals:      0.002 (MW) /      0.015 (MB)
	Size of irrep 2 of <Ab|Cd> integrals:      0.002 (MW) /      0.015 (MB)
	Size of irrep 3 of <Ab|Cd> integrals:      0.002 (MW) /      0.015 (MB)
	Size of irrep 4 of <Ab|Cd> integrals:      0.001 (MW) /      0.007 (MB)
	Size of irrep 5 of <Ab|Cd> integrals:      0.003 (MW) /      0.020 (MB)
	Size of irrep 6 of <Ab|Cd> integrals:      0.003 (MW) /      0.020 (MB)
	Size of irrep 7 of <Ab|Cd> integrals:      0.003 (MW) /      0.020 (MB)
	Total:                                     0.019 (MW) /      0.149 (MB)

	Size of irrep 0 of <IA|BC> integrals:      0.001 (MW) /      0.006 (MB)
	Size of irrep 1 of <IA|BC> integrals:      0.000 (MW) /      0.002 (MB)
	Size of irrep 2 of <IA|BC> integrals:      0.000 (MW) /      0.002 (MB)
	Size of irrep 3 of <IA|BC> integrals:      0.000 (MW) /      0.002 (MB)
	Size of irrep 4 of <IA|BC> integrals:      0.000 (MW) /      0.001 (MB)
	Size of irrep 5 of <IA|BC> integrals:      0.000 (MW) /      0.004 (MB)
	Size of irrep 6 of <IA|BC> integrals:      0.000 (MW) /      0.004 (MB)
	Size of irrep 7 of <IA|BC> integrals:      0.000 (MW) /      0.004 (MB)
	Total:                                     0.003 (MW) /      0.024 (MB)

	Size of irrep 0 of <ia|bc> integrals:      0.000 (MW) /      0.004 (MB)
	Size of irrep 1 of <ia|bc> integrals:      0.000 (MW) /      0.001 (MB)
	Size of irrep 2 of <ia|bc> integrals:      0.000 (MW) /      0.001 (MB)
	Size of irrep 3 of <ia|bc> integrals:      0.000 (MW) /      0.001 (MB)
	Size of irrep 4 of <ia|bc> integrals:      0.000 (MW) /      0.000 (MB)
	Size of irrep 5 of <ia|bc> integrals:      0.000 (MW) /      0.001 (MB)
	Size of irrep 6 of <ia|bc> integrals:      0.000 (MW) /      0.001 (MB)
	Size of irrep 7 of <ia|bc> integrals:      0.000 (MW) /      0.001 (MB)
	Total:                                     0.001 (MW) /      0.010 (MB)

	Size of irrep 0 of <Ia|Bc> integrals:      0.001 (MW) /      0.008 (MB)
	Size of irrep 1 of <Ia|Bc> integrals:      0.000 (MW) /      0.003 (MB)
	Size of irrep 2 of <Ia|Bc> integrals:      0.000 (MW) /      0.003 (MB)
	Size of irrep 3 of <Ia|Bc> integrals:      0.000 (MW) /      0.003 (MB)
	Size of irrep 4 of <Ia|Bc> integrals:      0.000 (MW) /      0.001 (MB)
	Size of irrep 5 of <Ia|Bc> integrals:      0.001 (MW) /      0.005 (MB)
	Size of irrep 6 of <Ia|Bc> integrals:      0.001 (MW) /      0.005 (MB)
	Size of irrep 7 of <Ia|Bc> integrals:      0.001 (MW) /      0.005 (MB)
	Total:                                     0.004 (MW) /      0.033 (MB)

	Size of irrep 0 of <iA|bC> integrals:      0.000 (MW) /      0.003 (MB)
	Size of irrep 1 of <iA|bC> integrals:      0.000 (MW) /      0.001 (MB)
	Size of irrep 2 of <iA|bC> integrals:      0.000 (MW) /      0.001 (MB)
	Size of irrep 3 of <iA|bC> integrals:      0.000 (MW) /      0.001 (MB)
	Size of irrep 4 of <iA|bC> integrals:      0.000 (MW) /      0.000 (MB)
	Size of irrep 5 of <iA|bC> integrals:      0.000 (MW) /      0.001 (MB)
	Size of irrep 6 of <iA|bC> integrals:      0.000 (MW) /      0.001 (MB)
	Size of irrep 7 of <iA|bC> integrals:      0.000 (MW) /      0.001 (MB)
	Total:                                     0.001 (MW) /      0.008 (MB)

	Size of irrep 0 of tIjAb amplitudes:       0.000 (MW) /      0.001 (MB)
	Size of irrep 1 of tIjAb amplitudes:       0.000 (MW) /      0.000 (MB)
	Size of irrep 2 of tIjAb amplitudes:       0.000 (MW) /      0.000 (MB)
	Size of irrep 3 of tIjAb amplitudes:       0.000 (MW) /      0.000 (MB)
	Size of irrep 4 of tIjAb amplitudes:       0.000 (MW) /      0.000 (MB)
	Size of irrep 5 of tIjAb amplitudes:       0.000 (MW) /      0.000 (MB)
	Size of irrep 6 of tIjAb amplitudes:       0.000 (MW) /      0.000 (MB)
	Size of irrep 7 of tIjAb amplitudes:       0.000 (MW) /      0.000 (MB)
	Total:                                     0.000 (MW) /      0.002 (MB)

	Nuclear Rep. energy          =      0.00000000000000
	SCF energy                   =    -37.70495001489284
	One-electron energy          =     -9.71772865469437
	Two-electron (AA) energy     =      2.40084477238477
	Two-electron (BB) energy     =      0.00000000000000
	Two-electron (AB) energy     =      1.97082870853597
	Two-electron energy          =      4.37167348092074
	Reference energy             =    -37.70495001489284

*** tstop() called on n412-039.vsc4.prov at Tue Jan 26 18:15:04 2021
Module time:
	user time   =       0.03 seconds =       0.00 minutes
	system time =       0.07 seconds =       0.00 minutes
	total time  =          1 seconds =       0.02 minutes
Total time:
	user time   =       6.30 seconds =       0.10 minutes
	system time =       0.30 seconds =       0.01 minutes
	total time  =          1 seconds =       0.02 minutes
            **************************
            *                        *
            *        CCENERGY        *
            *                        *
            **************************

    Nuclear Rep. energy (wfn)     =    0.000000000000000
    SCF energy          (wfn)     =  -37.704950014892844
    Reference energy    (file100) =  -37.704950014892844

    Input parameters:
    -----------------
    Wave function   =     CCSD_T
    Reference wfn   =     UHF
    Brueckner       =     No
    Memory (Mbytes) =     250000.0
    Maxiter         =     50
    R_Convergence   =     1.0e-07
    E_Convergence   =     1.0e-06
    Restart         =     Yes
    DIIS            =     Yes
    AO Basis        =     NONE
    ABCD            =     NEW
    Cache Level     =     2
    Cache Type      =     LRU
    Print Level     =     1
    Num. of threads =     48
    # Amps to Print =     10
    Print MP2 Amps? =     No
    Analyze T2 Amps =     No
    Print Pair Ener =     No
    Local CC        =     No
    SCS-MP2         =     False
    SCSN-MP2        =     False
    SCS-CCSD        =     False

MP2 correlation energy -0.0801444660467133
                Solving CC Amplitude Equations
                ------------------------------
  Iter             Energy              RMS        T1Diag      D1Diag    New D1Diag    D2Diag
  ----     ---------------------    ---------   ----------  ----------  ----------   --------
     0        -0.080144466046713    0.000e+00    0.000000    0.000000    0.000000    0.000000
     1        -0.093815807204801    5.332e-02    0.015079    0.000000    0.000000    0.000000
     2        -0.098277739153000    2.122e-02    0.022846    0.000000    0.000000    0.000000
     3        -0.099009649797568    1.004e-02    0.028910    0.000000    0.000000    0.000000
     4        -0.098911339239520    3.625e-03    0.031165    0.000000    0.000000    0.000000
     5        -0.098913286109685    1.004e-03    0.031484    0.000000    0.000000    0.000000
     6        -0.098923015447407    3.409e-04    0.031427    0.000000    0.000000    0.000000
     7        -0.098930538962326    1.297e-04    0.031384    0.000000    0.000000    0.000000
     8        -0.098928227293263    2.507e-05    0.031374    0.000000    0.000000    0.000000
     9        -0.098928354744868    5.788e-06    0.031372    0.000000    0.000000    0.000000
    10        -0.098928339162605    1.427e-06    0.031373    0.000000    0.000000    0.000000
    11        -0.098928328133966    3.862e-07    0.031373    0.000000    0.000000    0.000000
    12        -0.098928312220683    1.086e-07    0.031373    0.000000    0.000000    0.000000
    13        -0.098928312188391    1.668e-08    0.031373    0.000000    0.000000    0.000000

    Iterations converged.

    Largest TIA Amplitudes:
              1  12        -0.0391692665
              2  14        -0.0391692665
              3  16        -0.0391692665
              0   0        -0.0122875243
              1  13         0.0039301388
              2  15         0.0039301388
              3  17         0.0039301388
              0   3        -0.0038802993

    Largest Tia Amplitudes:
              0   3        -0.0103094067
              0   0         0.0001230243

    Largest TIJAB Amplitudes:
      3   2  16  14        -0.0459953411
      3   1  16  12        -0.0459953411
      2   1  14  12        -0.0459953411
      3   2  17  15        -0.0304398553
      3   1  17  13        -0.0304398553
      2   1  15  13        -0.0304398553
      3   2  16  15        -0.0291837654
      3   2  17  14        -0.0291837654
      3   1  16  13        -0.0291837654
      3   1  17  12        -0.0291837654

    Largest TIjAb Amplitudes:
      1   0   2  13        -0.0414442414
      2   0   1  16         0.0359670614
      1   0   8  19        -0.0358920028
      1   0  10  16        -0.0358920028
      2   0   6  19        -0.0358920028
      2   0  10  13        -0.0358920028
      3   0   6  16        -0.0358920028
      3   0   8  13        -0.0358920028
      3   0   1  19        -0.0358164704
      0   0  12  13        -0.0349686841

    SCF energy       (wfn)                    =  -37.704950014892844
    Reference energy (file100)                =  -37.704950014892844

    Opposite-spin MP2 correlation energy      =   -0.052968600976857
    Same-spin MP2 correlation energy          =   -0.027175865069856
    Singles MP2 correlation energy            =   -0.000000000000000
    MP2 correlation energy                    =   -0.080144466046713
      * MP2 total energy                      =  -37.785094480939556

    Opposite-spin CCSD correlation energy     =   -0.067942285566842
    Same-spin CCSD correlation energy         =   -0.030986026621549
    Singles CCSD correlation energy           =    0.000000000000000
    CCSD correlation energy                   =   -0.098928312188391
      * CCSD total energy                     =  -37.803878327081236

            **************************
            *                        *
            *        CCTRIPLES       *
            *                        *
            **************************

    Wave function   =    CCSD_T
    Reference wfn   =      UHF

    Nuclear Rep. energy (wfn)                =    0.000000000000000
    SCF energy          (wfn)                =  -37.704950014892844
    Reference energy    (file100)            =  -37.704950014892844

      * CCSD(T) total energy                     =  -37.806873682609151
*** Psi4 exiting successfully. Buy a developer a beer!
