                               Psi4 1.2a1.dev939

  ==> Input File <==

--------------------------------------------------------------------------
# Any line starting with the # character is a comment line

memory 32000 mb

molecule molecule {
-1 1
F          0.0000000000        0.0000000000        0.0000000000
}

set {
  reference rhf
  basis aug-cc-pv(Q+d)z
  scf_type OUT_OF_CORE
  freeze_core true
}

energy('ccsd')
--------------------------------------------------------------------------

    Molecular point group: d2h
    Geometry (in Angstrom), charge = -1, multiplicity = 1:

       Center              X                  Y                   Z               Mass
    ------------   -----------------  -----------------  -----------------  -----------------
           F          0.000000000000     0.000000000000     0.000000000000    18.998403224000

  Charge       = -1
  Multiplicity = 1
  Basis Set: AUG-CC-PV(Q+D)Z
    Blend: AUG-CC-PV(Q+D)Z

    Orbital Energies (a.u.)
    -----------------------

    Doubly Occupied:

       1Ag   -25.830665     2Ag    -1.074936     1B3u   -0.180976
       1B1u   -0.180976     1B2u   -0.180976

  @RHF Final Energy:   -99.45746209401827

   => Energetics <=

    Nuclear Repulsion Energy =              0.0000000000000000
    One-Electron Energy =                -144.0178703093680497
    Two-Electron Energy =                  44.5604082153497885
    Total Energy =                        -99.4574620940182683
      * MP2 total energy                      =  -99.774406622624568
      * CCSD total energy                     =  -99.765819493482709
*** Psi4 exiting successfully. Buy a developer a beer!
