                               Psi4 1.2a1.dev939

  ==> Input File <==

--------------------------------------------------------------------------
# Any line starting with the # character is a comment line

memory 32000 mb

molecule molecule {
-1 1
F          0.0000000000        0.0000000000        0.0000000000
}

set {
  reference rhf

  basis aug-cc-pv(5+d)z
  scf_type OUT_OF_CORE
  freeze_core true
}

energy('ccsd')
--------------------------------------------------------------------------

    Molecular point group: d2h
    Geometry (in Angstrom), charge = -1, multiplicity = 1:

       Center              X                  Y                   Z               Mass
    ------------   -----------------  -----------------  -----------------  -----------------
           F          0.000000000000     0.000000000000     0.000000000000    18.998403224000

  Charge       = -1
  Multiplicity = 1
  Basis Set: AUG-CC-PV(5+D)Z
    Blend: AUG-CC-PV(5+D)Z

    Orbital Energies (a.u.)
    -----------------------

    Doubly Occupied:

       1Ag   -25.829663     2Ag    -1.074592     1B1u   -0.180970
       1B3u   -0.180970     1B2u   -0.180970

  @RHF Final Energy:   -99.45926076780154

   => Energetics <=

    Nuclear Repulsion Energy =              0.0000000000000000
    One-Electron Energy =                -144.0241927519182923
    Two-Electron Energy =                  44.5649319841167539
    Total Energy =                        -99.4592607678015383
      * MP2 total energy                      =  -99.785556668662153
      * CCSD total energy                     =  -99.774888598336020
*** Psi4 exiting successfully. Buy a developer a beer!
