                               Psi4 1.2a1.dev939

  ==> Input File <==

--------------------------------------------------------------------------
# Any line starting with the # character is a comment line

memory 32000 mb

molecule molecule {
-1 1
F          0.0000000000        0.0000000000        0.0000000000
}

set {
  reference rhf
  basis aug-cc-pv(T+d)z
  scf_type OUT_OF_CORE
  freeze_core true
}

energy('ccsd')
--------------------------------------------------------------------------

    Molecular point group: d2h
    Geometry (in Angstrom), charge = -1, multiplicity = 1:

       Center              X                  Y                   Z               Mass
    ------------   -----------------  -----------------  -----------------  -----------------
           F          0.000000000000     0.000000000000     0.000000000000    18.998403224000

  Charge       = -1
  Multiplicity = 1
  Basis Set: AUG-CC-PV(T+D)Z
    Blend: AUG-CC-PV(T+D)Z

    Orbital Energies (a.u.)
    -----------------------

    Doubly Occupied:

       1Ag   -25.833682     2Ag    -1.076019     1B1u   -0.180947
       1B3u   -0.180947     1B2u   -0.180947

  @RHF Final Energy:   -99.45080702230223

   => Energetics <=

    Nuclear Repulsion Energy =              0.0000000000000000
    One-Electron Energy =                -143.9965321523336286
    Two-Electron Energy =                  44.5457251300313999
    PCM Polarization Energy =               0.0000000000000000
    Total Energy =                        -99.4508070223022287
      * MP2 total energy                      =  -99.745878555067407
      * CCSD total energy                     =  -99.739301170532769
*** Psi4 exiting successfully. Buy a developer a beer!
