                               Psi4 1.4a3.dev88

  ==> Input File <==

--------------------------------------------------------------------------
# Any line starting with the # character is a comment line
memory 250000 mb
molecule molecule{
0 1
H          0.0000000000        0.0000000000        0.3687192096
H          0.0000000000        0.0000000000       -0.3687192096
}

set {
  reference rhf
  basis aug-cc-pV(d+d)Z
  scf_type OUT_OF_CORE
  freeze_core true
}

energy('ccsd(t)')
--------------------------------------------------------------------------

    Molecular point group: d2h

    Geometry (in Angstrom), charge = 0, multiplicity = 1:

       Center              X                  Y                   Z               Mass
    ------------   -----------------  -----------------  -----------------  -----------------
         H            0.000000000000     0.000000000000     0.368719209600     1.007825032230
         H            0.000000000000     0.000000000000    -0.368719209600     1.007825032230

  Charge       = 0
  Multiplicity = 1
  Basis Set: AUG-CC-PV(D+D)Z
    Blend: AUG-CC-PV(D+D)Z

    Orbital Energies [Eh]
    ---------------------

    Doubly Occupied:

       1Ag    -0.593569

  @RHF Final Energy:    -1.12874312609499

   => Energetics <=

    Nuclear Repulsion Energy =              0.7175883394359501
    One-Electron Energy =                  -2.5055253864976197
    Two-Electron Energy =                   0.6591939209666835
    Total Energy =                         -1.1287431260949861

  Dipole Moment: [D]
     X:     0.0000      Y:     0.0000      Z:     0.0000     Total:     0.0000

      * MP2 total energy                      =   -1.156001130092748
      * CCSD total energy                     =   -1.164501589516618
      * CCSD(T) total energy                  =   -1.164501589516618
*** Psi4 exiting successfully. Buy a developer a beer!
