                               Psi4 1.4a3.dev88

  ==> Input File <==

--------------------------------------------------------------------------
# Any line starting with the # character is a comment line
memory 250000 mb
molecule molecule{
0 1
H          0.0000000000        0.0000000000        0.3687192096
H          0.0000000000        0.0000000000       -0.3687192096
}

set {
  reference rhf
  basis aug-cc-pv(5+d)z
  scf_type OUT_OF_CORE
  freeze_core true
}

energy('ccsd(t)')
--------------------------------------------------------------------------

    Molecular point group: d2h

    Geometry (in Angstrom), charge = 0, multiplicity = 1:

       Center              X                  Y                   Z               Mass
    ------------   -----------------  -----------------  -----------------  -----------------
         H            0.000000000000     0.000000000000     0.368719209600     1.007825032230
         H            0.000000000000     0.000000000000    -0.368719209600     1.007825032230

  Charge       = 0
  Multiplicity = 1
  Basis Set: AUG-CC-PV(5+D)Z
    Blend: AUG-CC-PV(5+D)Z

    Orbital Energies [Eh]
    ---------------------

    Doubly Occupied:

       1Ag    -0.595707

  @RHF Final Energy:    -1.13363727804106

   => Energetics <=

    Nuclear Repulsion Energy =              0.7175883394359501
    One-Electron Energy =                  -2.5110365572505926
    Two-Electron Energy =                   0.6598109397735830
    Total Energy =                         -1.1336372780410595

  Dipole Moment: [D]
     X:     0.0000      Y:     0.0000      Z:     0.0000     Total:     0.0000

      * MP2 total energy                      =   -1.167366317656130
      * CCSD total energy                     =   -1.174240652706960
      * CCSD(T) total energy                  =   -1.174240652706960
*** Psi4 exiting successfully. Buy a developer a beer!
