                               Psi4 1.2a1.dev938

  ==> Input File <==

--------------------------------------------------------------------------
# Any line starting with the # character is a comment line
memory 250000 mb
molecule molecule{
-1 4
C          0.0000000000        0.0000000000        0.0000000000
}

set {
  reference uhf
  basis aug-cc-pv(t+d)z
  scf_type OUT_OF_CORE
  freeze_core true
}

energy('ccsd')
--------------------------------------------------------------------------

    Molecular point group: d2h
    Geometry (in Angstrom), charge = -1, multiplicity = 4:

       Center              X                  Y                   Z               Mass
    ------------   -----------------  -----------------  -----------------  -----------------
           C          0.000000000000     0.000000000000     0.000000000000    12.000000000000

  Charge       = -1
  Multiplicity = 4
  Basis Set: AUG-CC-PV(T+D)Z
    Blend: AUG-CC-PV(T+D)Z

    Orbital Energies (a.u.)
    -----------------------

    Alpha Occupied:

       1Ag   -10.975902     2Ag    -0.525659     1B1u   -0.077862
       1B3u   -0.077862     1B2u   -0.077862

    Alpha Virtual:

       2B2u    0.264819     2B3u    0.264819     2B1u    0.264819
       3Ag     0.281197     4Ag     0.516546     1B3g    0.516546
       1B1g    0.516546     1B2g    0.516546     5Ag     0.516546
       3B3u    0.810850     3B1u    0.810850     3B2u    0.810850
       6Ag     1.007387     2B2g    1.319705     7Ag     1.319705
       2B1g    1.319705     2B3g    1.319705     8Ag     1.319705
       4B3u    1.364047     4B1u    1.364047     4B2u    1.364047
       1Au     1.364047     5B3u    1.364047     5B1u    1.364047
       5B2u    1.364047     6B1u    2.686188     6B3u    2.686188
       6B2u    2.686188     3B2g    3.728257     9Ag     3.728257
       3B1g    3.728257     3B3g    3.728257    10Ag     3.728257
       7B2u    3.781806     7B3u    3.781806     7B1u    3.781806
       2Au     3.781806     8B2u    3.781806     8B3u    3.781806
       8B1u    3.781806    11Ag     4.965649

    Beta Occupied:

       1Ag   -10.927845     2Ag    -0.213283

    Beta Virtual:

       1B3u    0.244914     1B1u    0.244914     1B2u    0.244914
       3Ag     0.310074     2B2u    0.461291     2B3u    0.461291
       2B1u    0.461291     4Ag     0.550106     1B3g    0.550106
       1B1g    0.550106     1B2g    0.550106     5Ag     0.550106
       3B2u    0.945268     3B3u    0.945268     3B1u    0.945268
       6Ag     1.091685     4B2u    1.402096     4B3u    1.402096
       4B1u    1.402096     1Au     1.402096     5B2u    1.402096
       5B3u    1.402096     5B1u    1.402096     7Ag     1.425201
       2B1g    1.425201     2B3g    1.425201     2B2g    1.425201
       8Ag     1.425201     6B2u    2.787030     6B3u    2.787030
       6B1u    2.787030     9Ag     3.838167     3B1g    3.838167
       3B3g    3.838167     3B2g    3.838167    10Ag     3.838167
       7B2u    3.851251     7B3u    3.851251     7B1u    3.851251
       2Au     3.851251     8B2u    3.851251     8B1u    3.851251
       8B3u    3.851251    11Ag     5.031659

    Final Occupation by Irrep:
             Ag   B1g   B2g   B3g    Au   B1u   B2u   B3u
    DOCC [     2,    0,    0,    0,    0,    0,    0,    0 ]
    SOCC [     0,    0,    0,    0,    0,    1,    1,    1 ]

  Energy converged.

  @UHF Final Energy:   -37.70844806961885

   => Energetics <=

    Nuclear Repulsion Energy =              0.0000000000000000
    One-Electron Energy =                 -52.5406207195824564
    Two-Electron Energy =                  14.8321726499636064
    Total Energy =                        -37.7084480696188535

  UHF NO Occupations:
  HONO-2 :    1B1u 1.0000000
  HONO-1 :    1B2u 1.0000000
  HONO-0 :    1B3u 1.0000000
  LUNO+0 :    3 Ag 0.0034140
  LUNO+1 :    4 Ag 0.0000033
  LUNO+2 :    2B2u 0.0000000
  LUNO+3 :    2B3u 0.0000000

Properties will be evaluated at   0.000000,   0.000000,   0.000000 Bohr

Properties computed using the SCF density matrix

  Nuclear Dipole Moment: (a.u.)
     X:     0.0000      Y:     0.0000      Z:     0.0000

  Electronic Dipole Moment: (a.u.)
     X:     0.0000      Y:     0.0000      Z:     0.0000

  Dipole Moment: (a.u.)
     X:     0.0000      Y:     0.0000      Z:     0.0000     Total:     0.0000

  Dipole Moment: (Debye)
     X:     0.0000      Y:     0.0000      Z:     0.0000     Total:     0.0000

*** tstop() called on cqc05 at Thu Aug 20 20:11:08 2020
Module time:
	user time   =       0.45 seconds =       0.01 minutes
	system time =       0.00 seconds =       0.00 minutes
	total time  =          0 seconds =       0.00 minutes
Total time:
	user time   =       0.45 seconds =       0.01 minutes
	system time =       0.00 seconds =       0.00 minutes
	total time  =          0 seconds =       0.00 minutes

*** tstart() called on cqc05
*** at Thu Aug 20 20:11:08 2020

	Wfn Parameters:
	--------------------
	Wavefunction         = CCSD
	Number of irreps     = 8
	Number of MOs        = 46
	Number of active MOs = 45
	AO-Basis             = NONE
	Semicanonical        = false
	Reference            = UHF
	Print Level          = 1

	IRREP	# MOs	# FZDC	# DOCC	# SOCC	# VIRT	# FZVR
	-----	-----	------	------	------	------	------
	 Ag	   11	    1	    1	    0	    9	    0
	 B1g	   3	    0	    0	    0	    3	    0
	 B2g	   3	    0	    0	    0	    3	    0
	 B3g	   3	    0	    0	    0	    3	    0
	 Au	   2	    0	    0	    0	    2	    0
	 B1u	   8	    0	    0	    1	    7	    0
	 B2u	   8	    0	    0	    1	    7	    0
	 B3u	   8	    0	    0	    1	    7	    0
	Transforming integrals...
	IWL integrals will be deleted.
	(OO|OO)...
	Presorting SO-basis two-electron integrals.
	Sorting File: SO Ints (nn|nn) nbuckets = 1
	Transforming the one-electron integrals and constructing Fock matrices
	Starting AA/AB first half-transformation.
	Sorting AA/AB half-transformed integrals.
	Starting BB first half-transformation.
	Sorting BB half-transformed integrals.
	First half integral transformation complete.
	Starting AA second half-transformation.
	Starting AB second half-transformation.
	Starting BB second half-transformation.
	Two-electron integral transformation complete.
	(OO|OV)...
	Starting AA second half-transformation.
	Starting AB second half-transformation.
	Starting BB second half-transformation.
	Two-electron integral transformation complete.
	(OO|VV)...
	Starting AA second half-transformation.
	Starting AB second half-transformation.
	Starting BB second half-transformation.
	Two-electron integral transformation complete.
	(OV|OO)...
	Starting AA/AB first half-transformation.
	Sorting AA/AB half-transformed integrals.
	Starting BB first half-transformation.
	Sorting BB half-transformed integrals.
	First half integral transformation complete.
	Starting AA second half-transformation.
	Starting AB second half-transformation.
	Starting BB second half-transformation.
	Two-electron integral transformation complete.
	(OV|OV)...
	Starting AA second half-transformation.
	Starting AB second half-transformation.
	Starting BB second half-transformation.
	Two-electron integral transformation complete.
	(OV|VV)...
	Starting AA second half-transformation.
	Starting AB second half-transformation.
	Starting BB second half-transformation.
	Two-electron integral transformation complete.
	(VV|OO)...
	Starting AA/AB first half-transformation.
	Sorting AA/AB half-transformed integrals.
	Starting BB first half-transformation.
	Sorting BB half-transformed integrals.
	First half integral transformation complete.
	Starting AA second half-transformation.
	Starting AB second half-transformation.
	Starting BB second half-transformation.
	Two-electron integral transformation complete.
	(VV|OV)...
	Starting AA second half-transformation.
	Starting AB second half-transformation.
	Starting BB second half-transformation.
	Two-electron integral transformation complete.
	(VV|VV)...
	Starting AA second half-transformation.
	Starting AB second half-transformation.
	Starting BB second half-transformation.
	Two-electron integral transformation complete.
	Frozen core energy     =    -32.35905992626832

	Size of irrep 0 of <AB|CD> integrals:      0.012 (MW) /      0.095 (MB)
	Size of irrep 1 of <AB|CD> integrals:      0.010 (MW) /      0.078 (MB)
	Size of irrep 2 of <AB|CD> integrals:      0.010 (MW) /      0.078 (MB)
	Size of irrep 3 of <AB|CD> integrals:      0.010 (MW) /      0.078 (MB)
	Size of irrep 4 of <AB|CD> integrals:      0.007 (MW) /      0.052 (MB)
	Size of irrep 5 of <AB|CD> integrals:      0.012 (MW) /      0.099 (MB)
	Size of irrep 6 of <AB|CD> integrals:      0.012 (MW) /      0.099 (MB)
	Size of irrep 7 of <AB|CD> integrals:      0.012 (MW) /      0.099 (MB)
	Total:                                     0.085 (MW) /      0.678 (MB)

	Size of irrep 0 of <ab|cd> integrals:      0.017 (MW) /      0.135 (MB)
	Size of irrep 1 of <ab|cd> integrals:      0.013 (MW) /      0.108 (MB)
	Size of irrep 2 of <ab|cd> integrals:      0.013 (MW) /      0.108 (MB)
	Size of irrep 3 of <ab|cd> integrals:      0.013 (MW) /      0.108 (MB)
	Size of irrep 4 of <ab|cd> integrals:      0.008 (MW) /      0.065 (MB)
	Size of irrep 5 of <ab|cd> integrals:      0.016 (MW) /      0.127 (MB)
	Size of irrep 6 of <ab|cd> integrals:      0.016 (MW) /      0.127 (MB)
	Size of irrep 7 of <ab|cd> integrals:      0.016 (MW) /      0.127 (MB)
	Total:                                     0.113 (MW) /      0.904 (MB)

	Size of irrep 0 of <Ab|Cd> integrals:      0.078 (MW) /      0.627 (MB)
	Size of irrep 1 of <Ab|Cd> integrals:      0.046 (MW) /      0.366 (MB)
	Size of irrep 2 of <Ab|Cd> integrals:      0.046 (MW) /      0.366 (MB)
	Size of irrep 3 of <Ab|Cd> integrals:      0.046 (MW) /      0.366 (MB)
	Size of irrep 4 of <Ab|Cd> integrals:      0.029 (MW) /      0.234 (MB)
	Size of irrep 5 of <Ab|Cd> integrals:      0.056 (MW) /      0.449 (MB)
	Size of irrep 6 of <Ab|Cd> integrals:      0.056 (MW) /      0.449 (MB)
	Size of irrep 7 of <Ab|Cd> integrals:      0.056 (MW) /      0.449 (MB)
	Total:                                     0.414 (MW) /      3.308 (MB)

	Size of irrep 0 of <IA|BC> integrals:      0.008 (MW) /      0.062 (MB)
	Size of irrep 1 of <IA|BC> integrals:      0.004 (MW) /      0.030 (MB)
	Size of irrep 2 of <IA|BC> integrals:      0.004 (MW) /      0.030 (MB)
	Size of irrep 3 of <IA|BC> integrals:      0.004 (MW) /      0.030 (MB)
	Size of irrep 4 of <IA|BC> integrals:      0.002 (MW) /      0.014 (MB)
	Size of irrep 5 of <IA|BC> integrals:      0.005 (MW) /      0.039 (MB)
	Size of irrep 6 of <IA|BC> integrals:      0.005 (MW) /      0.039 (MB)
	Size of irrep 7 of <IA|BC> integrals:      0.005 (MW) /      0.039 (MB)
	Total:                                     0.035 (MW) /      0.284 (MB)

	Size of irrep 0 of <ia|bc> integrals:      0.003 (MW) /      0.022 (MB)
	Size of irrep 1 of <ia|bc> integrals:      0.001 (MW) /      0.006 (MB)
	Size of irrep 2 of <ia|bc> integrals:      0.001 (MW) /      0.006 (MB)
	Size of irrep 3 of <ia|bc> integrals:      0.001 (MW) /      0.006 (MB)
	Size of irrep 4 of <ia|bc> integrals:      0.000 (MW) /      0.003 (MB)
	Size of irrep 5 of <ia|bc> integrals:      0.002 (MW) /      0.016 (MB)
	Size of irrep 6 of <ia|bc> integrals:      0.002 (MW) /      0.016 (MB)
	Size of irrep 7 of <ia|bc> integrals:      0.002 (MW) /      0.016 (MB)
	Total:                                     0.011 (MW) /      0.090 (MB)

	Size of irrep 0 of <Ia|Bc> integrals:      0.009 (MW) /      0.074 (MB)
	Size of irrep 1 of <Ia|Bc> integrals:      0.004 (MW) /      0.036 (MB)
	Size of irrep 2 of <Ia|Bc> integrals:      0.004 (MW) /      0.036 (MB)
	Size of irrep 3 of <Ia|Bc> integrals:      0.004 (MW) /      0.036 (MB)
	Size of irrep 4 of <Ia|Bc> integrals:      0.002 (MW) /      0.015 (MB)
	Size of irrep 5 of <Ia|Bc> integrals:      0.005 (MW) /      0.044 (MB)
	Size of irrep 6 of <Ia|Bc> integrals:      0.005 (MW) /      0.044 (MB)
	Size of irrep 7 of <Ia|Bc> integrals:      0.005 (MW) /      0.044 (MB)
	Total:                                     0.041 (MW) /      0.328 (MB)

	Size of irrep 0 of <iA|bC> integrals:      0.003 (MW) /      0.020 (MB)
	Size of irrep 1 of <iA|bC> integrals:      0.001 (MW) /      0.005 (MB)
	Size of irrep 2 of <iA|bC> integrals:      0.001 (MW) /      0.005 (MB)
	Size of irrep 3 of <iA|bC> integrals:      0.001 (MW) /      0.005 (MB)
	Size of irrep 4 of <iA|bC> integrals:      0.000 (MW) /      0.003 (MB)
	Size of irrep 5 of <iA|bC> integrals:      0.002 (MW) /      0.013 (MB)
	Size of irrep 6 of <iA|bC> integrals:      0.002 (MW) /      0.013 (MB)
	Size of irrep 7 of <iA|bC> integrals:      0.002 (MW) /      0.013 (MB)
	Total:                                     0.010 (MW) /      0.078 (MB)

	Size of irrep 0 of tIjAb amplitudes:       0.000 (MW) /      0.002 (MB)
	Size of irrep 1 of tIjAb amplitudes:       0.000 (MW) /      0.000 (MB)
	Size of irrep 2 of tIjAb amplitudes:       0.000 (MW) /      0.000 (MB)
	Size of irrep 3 of tIjAb amplitudes:       0.000 (MW) /      0.000 (MB)
	Size of irrep 4 of tIjAb amplitudes:       0.000 (MW) /      0.000 (MB)
	Size of irrep 5 of tIjAb amplitudes:       0.000 (MW) /      0.002 (MB)
	Size of irrep 6 of tIjAb amplitudes:       0.000 (MW) /      0.002 (MB)
	Size of irrep 7 of tIjAb amplitudes:       0.000 (MW) /      0.002 (MB)
	Total:                                     0.001 (MW) /      0.008 (MB)

	Nuclear Rep. energy          =      0.00000000000000
	SCF energy                   =    -37.70844806961885
	One-electron energy          =     -9.72624798033908
	Two-electron (AA) energy     =      2.40571256775797
	Two-electron (BB) energy     =      0.00000000000000
	Two-electron (AB) energy     =      1.97114726923058
	Two-electron energy          =      4.37685983698854
	Reference energy             =    -37.70844806961885

*** tstop() called on cqc05 at Thu Aug 20 20:11:09 2020
Module time:
	user time   =       0.07 seconds =       0.00 minutes
	system time =       0.10 seconds =       0.00 minutes
	total time  =          1 seconds =       0.02 minutes
Total time:
	user time   =       0.52 seconds =       0.01 minutes
	system time =       0.10 seconds =       0.00 minutes
	total time  =          1 seconds =       0.02 minutes

*** tstart() called on cqc05
*** at Thu Aug 20 20:11:09 2020

            **************************
            *                        *
            *        CCENERGY        *
            *                        *
            **************************

    Nuclear Rep. energy (wfn)     =    0.000000000000000
    SCF energy          (wfn)     =  -37.708448069618846
    Reference energy    (file100) =  -37.708448069618854

    Input parameters:
    -----------------
    Wave function   =     CCSD
    Reference wfn   =     UHF
    Brueckner       =     No
    Memory (Mbytes) =     250000.0
    Maxiter         =     50
    R_Convergence   =     1.0e-07
    E_Convergence   =     1.0e-06
    Restart         =     Yes
    DIIS            =     Yes
    AO Basis        =     NONE
    ABCD            =     NEW
    Cache Level     =     2
    Cache Type      =     LRU
    Print Level     =     1
    Num. of threads =     4
    # Amps to Print =     10
    Print MP2 Amps? =     No
    Analyze T2 Amps =     No
    Print Pair Ener =     No
    Local CC        =     No
    SCS-MP2         =     False
    SCSN-MP2        =     False
    SCS-CCSD        =     False

MP2 correlation energy -0.0976063058105954
                Solving CC Amplitude Equations
                ------------------------------
  Iter             Energy              RMS        T1Diag      D1Diag    New D1Diag    D2Diag
  ----     ---------------------    ---------   ----------  ----------  ----------   --------
     0        -0.097606305810595    0.000e+00    0.000000    0.000000    0.000000    0.000000
     1        -0.109130853934702    4.611e-02    0.012246    0.000000    0.000000    0.000000
     2        -0.112789693358614    1.915e-02    0.019049    0.000000    0.000000    0.000000
     3        -0.113491855146966    9.850e-03    0.024843    0.000000    0.000000    0.000000
     4        -0.113420616317771    3.800e-03    0.027710    0.000000    0.000000    0.000000
     5        -0.113402883948344    9.422e-04    0.028193    0.000000    0.000000    0.000000
     6        -0.113405275235769    2.758e-04    0.028173    0.000000    0.000000    0.000000
     7        -0.113409729692998    1.195e-04    0.028158    0.000000    0.000000    0.000000
     8        -0.113409404371352    4.601e-05    0.028141    0.000000    0.000000    0.000000
     9        -0.113409694113395    1.126e-05    0.028136    0.000000    0.000000    0.000000
    10        -0.113409791653777    2.560e-06    0.028136    0.000000    0.000000    0.000000
    11        -0.113409790675400    6.818e-07    0.028135    0.000000    0.000000    0.000000
    12        -0.113409770745706    1.898e-07    0.028135    0.000000    0.000000    0.000000
    13        -0.113409771218556    3.672e-08    0.028135    0.000000    0.000000    0.000000
    13        -0.113409771218556    3.672e-08    0.028135    0.000000    0.000000    0.000000

    Iterations converged.

    CCSD corr. energy   =   -0.113409771218556
    PPL corr. energy    =    0.031115973221447
    OS PPL corr. energy =    0.023538115452703
    SS PPL corr. energy =    0.007577857768744
    Largest TIA Amplitudes:
              2  27        -0.0344507571
              1  20        -0.0344507535
              3  34        -0.0344507535
              0   0        -0.0098187327
              2  31         0.0047661124
              1  24         0.0047661123
              3  38         0.0047661123
              0   3        -0.0030634469
              1  21         0.0017362273
              3  35         0.0017362273

    Largest Tia Amplitudes:
              0   3        -0.0126212054
              0   0         0.0067218095
              0   8         0.0026946597

    Largest TIJAB Amplitudes:
      3   2  34  27        -0.0461180153
      2   1  27  20        -0.0461180153
      3   1  34  20        -0.0461180141
      3   1  35  21        -0.0408338872
      3   2  35  28        -0.0408338872
      2   1  28  21        -0.0408338872
      3   2  35  27        -0.0364964817
      2   1  27  21        -0.0364964817
      3   2  34  28        -0.0364964810
      2   1  28  20        -0.0364964810

    Largest TIjAb Amplitudes:
      2   0   5  29         0.0468317785
      3   0   4  37         0.0405577970
      1   0  16  29        -0.0405575100
      3   0  10  29        -0.0405575100
      1   0  13  37        -0.0405575100
      3   0  13  21        -0.0405575100
      2   0  10  37        -0.0405575098
      2   0  16  21        -0.0405575098
      1   0   4  21        -0.0405572229
      2   0   1  29        -0.0400766511

      * MP2 total energy                      =  -37.806054375429447
      * CCSD total energy                     =  -37.821857840837410
*** Psi4 exiting successfully. Buy a developer a beer!
