                               Psi4 1.2a1.dev938

  ==> Input File <==

--------------------------------------------------------------------------
# Any line starting with the # character is a comment line
memory 250000 mb
molecule molecule{
-1 4
C          0.0000000000        0.0000000000        0.0000000000
}

set {
  reference uhf
  basis aug-cc-pv(q+d)z
  scf_type OUT_OF_CORE
  freeze_core true
}

energy('ccsd')
--------------------------------------------------------------------------

    Molecular point group: d2h
    Geometry (in Angstrom), charge = -1, multiplicity = 4:

       Center              X                  Y                   Z               Mass
    ------------   -----------------  -----------------  -----------------  -----------------
           C          0.000000000000     0.000000000000     0.000000000000    12.000000000000

  Charge       = -1
  Multiplicity = 4
  Basis Set: AUG-CC-PV(Q+D)Z
    Blend: AUG-CC-PV(Q+D)Z

    Orbital Energies (a.u.)
    -----------------------

    Alpha Occupied:

       1Ag   -10.975315     2Ag    -0.525530     1B3u   -0.078030
       1B2u   -0.078030     1B1u   -0.078030

    Alpha Virtual:

       2B1u    0.239823     2B2u    0.239823     2B3u    0.239823
       3Ag     0.257776     4Ag     0.428291     1B3g    0.428291
       1B2g    0.428291     1B1g    0.428291     5Ag     0.428291
       3B1u    0.675952     3B2u    0.675952     3B3u    0.675952
       6Ag     0.746254     4B1u    1.008178     5B1u    1.008178
       1Au     1.008178     4B2u    1.008178     4B3u    1.008178
       5B3u    1.008178     5B2u    1.008178     2B3g    1.035469
       7Ag     1.035469     2B2g    1.035469     8Ag     1.035469
       2B1g    1.035469     6B1u    1.892563     6B3u    1.892563
       6B2u    1.892563     9Ag     2.426294    10Ag     2.428240
      11Ag     2.428240     3B1g    2.428240    12Ag     2.428240
       3B2g    2.428240     3B3g    2.428240     4B1g    2.428240
       4B2g    2.428240     4B3g    2.428240     5B3g    2.522087
       5B2g    2.522087     5B1g    2.522087    13Ag     2.522087
      14Ag     2.522087     7B1u    2.591739     8B1u    2.591739
       7B2u    2.591739     7B3u    2.591739     2Au     2.591739
       8B3u    2.591739     8B2u    2.591739     9B1u    6.143746
       9B2u    6.143746     9B3u    6.143746     6B1g    6.287837
      15Ag     6.287837     6B2g    6.287837    16Ag     6.287837
       7B1g    6.287837     7B2g    6.287837    17Ag     6.287837
       6B3g    6.287837     7B3g    6.287837     8B3g    6.719184
       8B1g    6.719184    18Ag     6.719184     8B2g    6.719184
      19Ag     6.719184    10B1u    6.828074    10B3u    6.828074
      11B3u    6.828074    11B1u    6.828074    10B2u    6.828074
       3Au     6.828074    11B2u    6.828074    20Ag    20.810708

    Beta Occupied:

       1Ag   -10.926818     2Ag    -0.212899

    Beta Virtual:

       1B1u    0.226509     1B3u    0.226509     1B2u    0.226509
       3Ag     0.279463     2B1u    0.433643     2B2u    0.433643
       2B3u    0.433643     4Ag     0.448561     1B2g    0.448561
       1B1g    0.448561     1B3g    0.448561     5Ag     0.448561
       3B1u    0.804453     3B2u    0.804453     3B3u    0.804453
       6Ag     0.810208     4B1u    1.031728     5B1u    1.031728
       1Au     1.031728     4B3u    1.031728     4B2u    1.031728
       5B3u    1.031728     5B2u    1.031728     7Ag     1.118262
       2B2g    1.118262     2B3g    1.118262     8Ag     1.118262
       2B1g    1.118262     6B1u    1.995405     6B3u    1.995405
       6B2u    1.995405     9Ag     2.456411    10Ag     2.456411
       3B1g    2.456411    11Ag     2.456411     3B2g    2.456411
       4B2g    2.456411     3B3g    2.456411     4B3g    2.456411
       4B1g    2.456411    12Ag     2.506702     5B3g    2.630405
       5B2g    2.630405     5B1g    2.630405    13Ag     2.630405
      14Ag     2.630405     7B1u    2.647910     8B1u    2.647910
       7B3u    2.647910     2Au     2.647910     7B2u    2.647910
       8B3u    2.647910     8B2u    2.647910     9B1u    6.209566
       9B2u    6.209566     9B3u    6.209566    15Ag     6.332441
       6B1g    6.332441     6B2g    6.332441    16Ag     6.332441
       7B1g    6.332441     7B2g    6.332441    17Ag     6.332441
       6B3g    6.332441     7B3g    6.332441     8B1g    6.796562
       8B3g    6.796562     8B2g    6.796562    18Ag     6.796562
      19Ag     6.796562    10B1u    6.893070    10B3u    6.893070
      11B3u    6.893070    11B1u    6.893070    10B2u    6.893070
       3Au     6.893070    11B2u    6.893070    20Ag    20.845436

    Final Occupation by Irrep:
             Ag   B1g   B2g   B3g    Au   B1u   B2u   B3u
    DOCC [     2,    0,    0,    0,    0,    0,    0,    0 ]
    SOCC [     0,    0,    0,    0,    0,    1,    1,    1 ]

  Energy converged.

  @UHF Final Energy:   -37.70995033839762

   => Energetics <=

    Nuclear Repulsion Energy =              0.0000000000000000
    One-Electron Energy =                 -52.5452491268589341
    Two-Electron Energy =                  14.8352987884613174
    PCM Polarization Energy =               0.0000000000000000
    Total Energy =                        -37.7099503383976185

    Alert: EFP and PCM quantities not currently incorporated into SCF psivars.
  UHF NO Occupations:
  HONO-2 :    1B3u 1.0000000
  HONO-1 :    1B2u 1.0000000
  HONO-0 :    1B1u 1.0000000
  LUNO+0 :    3 Ag 0.0034565
  LUNO+1 :    4 Ag 0.0000031
  LUNO+2 :    5 Ag 0.0000000
  LUNO+3 :    2B1u 0.0000000

Properties will be evaluated at   0.000000,   0.000000,   0.000000 Bohr

Properties computed using the SCF density matrix

  Nuclear Dipole Moment: (a.u.)
     X:     0.0000      Y:     0.0000      Z:     0.0000

  Electronic Dipole Moment: (a.u.)
     X:     0.0000      Y:     0.0000      Z:     0.0000

  Dipole Moment: (a.u.)
     X:     0.0000      Y:     0.0000      Z:     0.0000     Total:     0.0000

  Dipole Moment: (Debye)
     X:     0.0000      Y:     0.0000      Z:     0.0000     Total:     0.0000

*** tstop() called on cqc05 at Thu Aug 20 22:41:43 2020
Module time:
	user time   =       1.50 seconds =       0.03 minutes
	system time =       0.03 seconds =       0.00 minutes
	total time  =          1 seconds =       0.02 minutes
Total time:
	user time   =       1.50 seconds =       0.03 minutes
	system time =       0.03 seconds =       0.00 minutes
	total time  =          1 seconds =       0.02 minutes

*** tstart() called on cqc05
*** at Thu Aug 20 22:41:43 2020

	Wfn Parameters:
	--------------------
	Wavefunction         = CCSD
	Number of irreps     = 8
	Number of MOs        = 80
	Number of active MOs = 79
	AO-Basis             = NONE
	Semicanonical        = false
	Reference            = UHF
	Print Level          = 1

	IRREP	# MOs	# FZDC	# DOCC	# SOCC	# VIRT	# FZVR
	-----	-----	------	------	------	------	------
	 Ag	   20	    1	    1	    0	    18	    0
	 B1g	   8	    0	    0	    0	    8	    0
	 B2g	   8	    0	    0	    0	    8	    0
	 B3g	   8	    0	    0	    0	    8	    0
	 Au	   3	    0	    0	    0	    3	    0
	 B1u	   11	    0	    0	    1	    10	    0
	 B2u	   11	    0	    0	    1	    10	    0
	 B3u	   11	    0	    0	    1	    10	    0
	Transforming integrals...
	IWL integrals will be deleted.
	(OO|OO)...
	Presorting SO-basis two-electron integrals.
	Sorting File: SO Ints (nn|nn) nbuckets = 1
	Transforming the one-electron integrals and constructing Fock matrices
	Starting AA/AB first half-transformation.
	Sorting AA/AB half-transformed integrals.
	Starting BB first half-transformation.
	Sorting BB half-transformed integrals.
	First half integral transformation complete.
	Starting AA second half-transformation.
	Starting AB second half-transformation.
	Starting BB second half-transformation.
	Two-electron integral transformation complete.
	(OO|OV)...
	Starting AA second half-transformation.
	Starting AB second half-transformation.
	Starting BB second half-transformation.
	Two-electron integral transformation complete.
	(OO|VV)...
	Starting AA second half-transformation.
	Starting AB second half-transformation.
	Starting BB second half-transformation.
	Two-electron integral transformation complete.
	(OV|OO)...
	Starting AA/AB first half-transformation.
	Sorting AA/AB half-transformed integrals.
	Starting BB first half-transformation.
	Sorting BB half-transformed integrals.
	First half integral transformation complete.
	Starting AA second half-transformation.
	Starting AB second half-transformation.
	Starting BB second half-transformation.
	Two-electron integral transformation complete.
	(OV|OV)...
	Starting AA second half-transformation.
	Starting AB second half-transformation.
	Starting BB second half-transformation.
	Two-electron integral transformation complete.
	(OV|VV)...
	Starting AA second half-transformation.
	Starting AB second half-transformation.
	Starting BB second half-transformation.
	Two-electron integral transformation complete.
	(VV|OO)...
	Starting AA/AB first half-transformation.
	Sorting AA/AB half-transformed integrals.
	Starting BB first half-transformation.
	Sorting BB half-transformed integrals.
	First half integral transformation complete.
	Starting AA second half-transformation.
	Starting AB second half-transformation.
	Starting BB second half-transformation.
	Two-electron integral transformation complete.
	(VV|OV)...
	Starting AA second half-transformation.
	Starting AB second half-transformation.
	Starting BB second half-transformation.
	Two-electron integral transformation complete.
	(VV|VV)...
	Starting AA second half-transformation.
	Starting AB second half-transformation.
	Starting BB second half-transformation.
	Two-electron integral transformation complete.
	Frozen core energy     =    -32.35976856143442

	Size of irrep 0 of <AB|CD> integrals:      0.141 (MW) /      1.125 (MB)
	Size of irrep 1 of <AB|CD> integrals:      0.114 (MW) /      0.914 (MB)
	Size of irrep 2 of <AB|CD> integrals:      0.114 (MW) /      0.914 (MB)
	Size of irrep 3 of <AB|CD> integrals:      0.114 (MW) /      0.914 (MB)
	Size of irrep 4 of <AB|CD> integrals:      0.086 (MW) /      0.691 (MB)
	Size of irrep 5 of <AB|CD> integrals:      0.132 (MW) /      1.060 (MB)
	Size of irrep 6 of <AB|CD> integrals:      0.132 (MW) /      1.060 (MB)
	Size of irrep 7 of <AB|CD> integrals:      0.132 (MW) /      1.060 (MB)
	Total:                                     0.967 (MW) /      7.738 (MB)

	Size of irrep 0 of <ab|cd> integrals:      0.164 (MW) /      1.312 (MB)
	Size of irrep 1 of <ab|cd> integrals:      0.131 (MW) /      1.048 (MB)
	Size of irrep 2 of <ab|cd> integrals:      0.131 (MW) /      1.048 (MB)
	Size of irrep 3 of <ab|cd> integrals:      0.131 (MW) /      1.048 (MB)
	Size of irrep 4 of <ab|cd> integrals:      0.101 (MW) /      0.809 (MB)
	Size of irrep 5 of <ab|cd> integrals:      0.158 (MW) /      1.267 (MB)
	Size of irrep 6 of <ab|cd> integrals:      0.158 (MW) /      1.267 (MB)
	Size of irrep 7 of <ab|cd> integrals:      0.158 (MW) /      1.267 (MB)
	Total:                                     1.133 (MW) /      9.068 (MB)

	Size of irrep 0 of <Ab|Cd> integrals:      0.731 (MW) /      5.848 (MB)
	Size of irrep 1 of <Ab|Cd> integrals:      0.489 (MW) /      3.909 (MB)
	Size of irrep 2 of <Ab|Cd> integrals:      0.489 (MW) /      3.909 (MB)
	Size of irrep 3 of <Ab|Cd> integrals:      0.489 (MW) /      3.909 (MB)
	Size of irrep 4 of <Ab|Cd> integrals:      0.375 (MW) /      2.996 (MB)
	Size of irrep 5 of <Ab|Cd> integrals:      0.581 (MW) /      4.645 (MB)
	Size of irrep 6 of <Ab|Cd> integrals:      0.581 (MW) /      4.645 (MB)
	Size of irrep 7 of <Ab|Cd> integrals:      0.581 (MW) /      4.645 (MB)
	Total:                                     4.313 (MW) /     34.506 (MB)

	Size of irrep 0 of <IA|BC> integrals:      0.040 (MW) /      0.317 (MB)
	Size of irrep 1 of <IA|BC> integrals:      0.021 (MW) /      0.168 (MB)
	Size of irrep 2 of <IA|BC> integrals:      0.021 (MW) /      0.168 (MB)
	Size of irrep 3 of <IA|BC> integrals:      0.021 (MW) /      0.168 (MB)
	Size of irrep 4 of <IA|BC> integrals:      0.016 (MW) /      0.127 (MB)
	Size of irrep 5 of <IA|BC> integrals:      0.032 (MW) /      0.256 (MB)
	Size of irrep 6 of <IA|BC> integrals:      0.032 (MW) /      0.256 (MB)
	Size of irrep 7 of <IA|BC> integrals:      0.032 (MW) /      0.256 (MB)
	Total:                                     0.214 (MW) /      1.716 (MB)

	Size of irrep 0 of <ia|bc> integrals:      0.016 (MW) /      0.128 (MB)
	Size of irrep 1 of <ia|bc> integrals:      0.006 (MW) /      0.046 (MB)
	Size of irrep 2 of <ia|bc> integrals:      0.006 (MW) /      0.046 (MB)
	Size of irrep 3 of <ia|bc> integrals:      0.006 (MW) /      0.046 (MB)
	Size of irrep 4 of <ia|bc> integrals:      0.002 (MW) /      0.015 (MB)
	Size of irrep 5 of <ia|bc> integrals:      0.009 (MW) /      0.070 (MB)
	Size of irrep 6 of <ia|bc> integrals:      0.009 (MW) /      0.070 (MB)
	Size of irrep 7 of <ia|bc> integrals:      0.009 (MW) /      0.070 (MB)
	Total:                                     0.062 (MW) /      0.492 (MB)

	Size of irrep 0 of <Ia|Bc> integrals:      0.044 (MW) /      0.349 (MB)
	Size of irrep 1 of <Ia|Bc> integrals:      0.023 (MW) /      0.185 (MB)
	Size of irrep 2 of <Ia|Bc> integrals:      0.023 (MW) /      0.185 (MB)
	Size of irrep 3 of <Ia|Bc> integrals:      0.023 (MW) /      0.185 (MB)
	Size of irrep 4 of <Ia|Bc> integrals:      0.017 (MW) /      0.132 (MB)
	Size of irrep 5 of <Ia|Bc> integrals:      0.034 (MW) /      0.274 (MB)
	Size of irrep 6 of <Ia|Bc> integrals:      0.034 (MW) /      0.274 (MB)
	Size of irrep 7 of <Ia|Bc> integrals:      0.034 (MW) /      0.274 (MB)
	Total:                                     0.232 (MW) /      1.858 (MB)

	Size of irrep 0 of <iA|bC> integrals:      0.015 (MW) /      0.123 (MB)
	Size of irrep 1 of <iA|bC> integrals:      0.006 (MW) /      0.045 (MB)
	Size of irrep 2 of <iA|bC> integrals:      0.006 (MW) /      0.045 (MB)
	Size of irrep 3 of <iA|bC> integrals:      0.006 (MW) /      0.045 (MB)
	Size of irrep 4 of <iA|bC> integrals:      0.002 (MW) /      0.015 (MB)
	Size of irrep 5 of <iA|bC> integrals:      0.008 (MW) /      0.061 (MB)
	Size of irrep 6 of <iA|bC> integrals:      0.008 (MW) /      0.061 (MB)
	Size of irrep 7 of <iA|bC> integrals:      0.008 (MW) /      0.061 (MB)
	Total:                                     0.057 (MW) /      0.455 (MB)

	Size of irrep 0 of tIjAb amplitudes:       0.001 (MW) /      0.007 (MB)
	Size of irrep 1 of tIjAb amplitudes:       0.000 (MW) /      0.000 (MB)
	Size of irrep 2 of tIjAb amplitudes:       0.000 (MW) /      0.000 (MB)
	Size of irrep 3 of tIjAb amplitudes:       0.000 (MW) /      0.000 (MB)
	Size of irrep 4 of tIjAb amplitudes:       0.000 (MW) /      0.000 (MB)
	Size of irrep 5 of tIjAb amplitudes:       0.001 (MW) /      0.006 (MB)
	Size of irrep 6 of tIjAb amplitudes:       0.001 (MW) /      0.006 (MB)
	Size of irrep 7 of tIjAb amplitudes:       0.001 (MW) /      0.006 (MB)
	Total:                                     0.003 (MW) /      0.025 (MB)

	Nuclear Rep. energy          =      0.00000000000000
	SCF energy                   =    -37.70995033839762
	One-electron energy          =     -9.72784412690214
	Two-electron (AA) energy     =      2.40692076445386
	Two-electron (BB) energy     =      0.00000000000000
	Two-electron (AB) energy     =      1.97074158548508
	Two-electron energy          =      4.37766234993895
	Reference energy             =    -37.70995033839760

*** tstop() called on cqc05 at Thu Aug 20 22:41:44 2020
Module time:
	user time   =       0.43 seconds =       0.01 minutes
	system time =       0.29 seconds =       0.00 minutes
	total time  =          1 seconds =       0.02 minutes
Total time:
	user time   =       1.93 seconds =       0.03 minutes
	system time =       0.32 seconds =       0.01 minutes
	total time  =          2 seconds =       0.03 minutes

*** tstart() called on cqc05
*** at Thu Aug 20 22:41:44 2020

            **************************
            *                        *
            *        CCENERGY        *
            *                        *
            **************************

    Nuclear Rep. energy (wfn)     =    0.000000000000000
    SCF energy          (wfn)     =  -37.709950338397618
    Reference energy    (file100) =  -37.709950338397604

    Input parameters:
    -----------------
    Wave function   =     CCSD
    Reference wfn   =     UHF
    Brueckner       =     No
    Memory (Mbytes) =     250000.0
    Maxiter         =     50
    R_Convergence   =     1.0e-07
    E_Convergence   =     1.0e-06
    Restart         =     Yes
    DIIS            =     Yes
    AO Basis        =     NONE
    ABCD            =     NEW
    Cache Level     =     2
    Cache Type      =     LRU
    Print Level     =     1
    Num. of threads =     4
    # Amps to Print =     10
    Print MP2 Amps? =     No
    Analyze T2 Amps =     No
    Print Pair Ener =     No
    Local CC        =     No
    SCS-MP2         =     False
    SCSN-MP2        =     False
    SCS-CCSD        =     False

MP2 correlation energy -0.1031957837841861
                Solving CC Amplitude Equations
                ------------------------------
  Iter             Energy              RMS        T1Diag      D1Diag    New D1Diag    D2Diag
  ----     ---------------------    ---------   ----------  ----------  ----------   --------
     0        -0.103195783784186    0.000e+00    0.000000    0.000000    0.000000    0.000000
     1        -0.112970347963980    4.437e-02    0.011856    0.000000    0.000000    0.000000
     2        -0.116547830695561    1.917e-02    0.018753    0.000000    0.000000    0.000000
     3        -0.117255881762465    1.018e-02    0.024636    0.000000    0.000000    0.000000
     4        -0.117176956732585    4.136e-03    0.027914    0.000000    0.000000    0.000000
     5        -0.117170220392975    1.096e-03    0.028617    0.000000    0.000000    0.000000
     6        -0.117164647974988    2.860e-04    0.028628    0.000000    0.000000    0.000000
     7        -0.117168475981051    1.175e-04    0.028629    0.000000    0.000000    0.000000
     8        -0.117168476731456    4.744e-05    0.028620    0.000000    0.000000    0.000000
     9        -0.117168565436509    1.675e-05    0.028611    0.000000    0.000000    0.000000
    10        -0.117168856261880    5.086e-06    0.028611    0.000000    0.000000    0.000000
    11        -0.117168860262763    1.538e-06    0.028610    0.000000    0.000000    0.000000
    12        -0.117168847792995    4.144e-07    0.028610    0.000000    0.000000    0.000000
    13        -0.117168843237371    8.047e-08    0.028610    0.000000    0.000000    0.000000
    13        -0.117168843237371    8.047e-08    0.028610    0.000000    0.000000    0.000000

    Iterations converged.

    CCSD corr. energy   =   -0.117168843237371
    PPL corr. energy    =    0.033596657481246
    OS PPL corr. energy =    0.025675081151185
    SS PPL corr. energy =    0.007921576330061
    Largest TIA Amplitudes:
              1  45        -0.0345902570
              2  55        -0.0345902570
              3  65        -0.0345902570
              0   0         0.0088790875
              1  49         0.0063581148
              2  59         0.0063581148
              3  69         0.0063581148
              0   6        -0.0034908302
              1  46        -0.0014046609
              2  56        -0.0014046609

    Largest Tia Amplitudes:
              0   3         0.0133462574
              0   0        -0.0076494009
              0   9        -0.0066427076
              0  17         0.0001166636

      * MP2 total energy                      =  -37.813146122181791
      * CCSD total energy                     =  -37.827119181634977
*** Psi4 exiting successfully. Buy a developer a beer!
