                               Psi4 1.2a1.dev938

  ==> Input File <==

--------------------------------------------------------------------------
# Any line starting with the # character is a comment line
memory 250000 mb
molecule molecule{
-1 4
C          0.0000000000        0.0000000000        0.0000000000
}

set {
  reference uhf
  basis aug-cc-pv(5+d)z
  scf_type OUT_OF_CORE
  freeze_core true
}

energy('ccsd')
--------------------------------------------------------------------------

    Molecular point group: d2h
    Geometry (in Angstrom), charge = -1, multiplicity = 4:

       Center              X                  Y                   Z               Mass
    ------------   -----------------  -----------------  -----------------  -----------------
           C          0.000000000000     0.000000000000     0.000000000000    12.000000000000

  Charge       = -1
  Multiplicity = 4
  Basis Set: AUG-CC-PV(5+D)Z
    Blend: AUG-CC-PV(5+D)Z

    Orbital Energies (a.u.)
    -----------------------

    Alpha Occupied:

       1Ag   -10.975010     2Ag    -0.525500     1B3u   -0.078091
       1B1u   -0.078091     1B2u   -0.078091

    Alpha Virtual:

       2B1u    0.204596     2B2u    0.204596     2B3u    0.204596
       3Ag     0.244893     4Ag     0.396897     1B2g    0.396897
       1B1g    0.396897     5Ag     0.396897     1B3g    0.396897
       3B1u    0.515571     3B2u    0.515571     3B3u    0.515571
       6Ag     0.669722     4B3u    0.782996     4B2u    0.782996
       4B1u    0.782996     1Au     0.782996     5B3u    0.782996
       5B2u    0.782996     5B1u    0.782996     2B3g    0.919186
       7Ag     0.919186     2B1g    0.919186     2B2g    0.919186
       8Ag     0.919186     6B3u    1.248903     6B1u    1.248903
       6B2u    1.248903     9Ag     1.847301     3B2g    1.847301
       3B1g    1.847301    10Ag     1.847301     3B3g    1.847301
       4B2g    1.847301     4B1g    1.847301    11Ag     1.847301
       4B3g    1.847301     7B1u    1.932835     7B2u    1.932835
       2Au     1.932835     7B3u    1.932835     8B1u    1.932835
       8B2u    1.932835     8B3u    1.932835    12Ag     1.969828
      13Ag     2.048978     5B1g    2.048978     5B2g    2.048978
       5B3g    2.048978    14Ag     2.048978     9B3u    3.048247
       9B2u    3.048247     9B1u    3.048247    10B3u    3.811093
      10B1u    3.811093    10B2u    3.811093     3Au     3.811093
      11B3u    3.811093    11B1u    3.811093    11B2u    3.811093
      12B3u    3.811093     4Au     3.811093    12B1u    3.811093
      12B2u    3.811093     6B3g    4.415861    15Ag     4.415861
       6B2g    4.415861     6B1g    4.415861     7B3g    4.415861
      16Ag     4.415861     7B2g    4.415861     7B1g    4.415861
      17Ag     4.415861    13B1u    4.424068    13B2u    4.424068
       5Au     4.424068    13B3u    4.424068    14B1u    4.424068
      14B2u    4.424068    14B3u    4.424068    18Ag     4.854813
       8B1g    4.854813     8B2g    4.854813    19Ag     4.854813
       8B3g    4.854813    20Ag     6.370528    15B3u    8.863903
      15B2u    8.863903    15B1u    8.863903    16B1u    9.298145
      16B2u    9.298145    16B3u    9.298145     6Au     9.298145
      17B1u    9.298145    17B2u    9.298145    17B3u    9.298145
       7Au     9.298145    18B1u    9.298145    18B2u    9.298145
      18B3u    9.298145    19B1u   10.430442    19B2u   10.430442
      19B3u   10.430442     8Au    10.430442    20B1u   10.430442
      20B2u   10.430442    20B3u   10.430442     9B3g   10.729541
      21Ag    10.729541     9B1g   10.729541     9B2g   10.729541
      10B3g   10.729541    22Ag    10.729541    10B2g   10.729541
      10B1g   10.729541    23Ag    10.729541    24Ag    12.318489
      11B3g   12.318489    11B1g   12.318489    11B2g   12.318489
      25Ag    12.318489    26Ag    34.495530

    Beta Occupied:

       1Ag   -10.926772     2Ag    -0.212836

    Beta Virtual:

       1B3u    0.197929     1B1u    0.197929     1B2u    0.197929
       3Ag     0.263658     2B3u    0.388886     2B1u    0.388886
       2B2u    0.388886     4Ag     0.412751     1B2g    0.412751
       1B1g    0.412751     1B3g    0.412751     5Ag     0.412751
       3B3u    0.641992     3B2u    0.641992     3B1u    0.641992
       6Ag     0.726552     4B3u    0.797569     4B1u    0.797569
       4B2u    0.797569     1Au     0.797569     5B3u    0.797569
       5B2u    0.797569     5B1u    0.797569     7Ag     0.987713
       2B1g    0.987713     2B2g    0.987713     2B3g    0.987713
       8Ag     0.987713     6B3u    1.346346     6B2u    1.346346
       6B1u    1.346346     9Ag     1.866922     3B2g    1.866922
       3B1g    1.866922    10Ag     1.866922     3B3g    1.866922
       4B1g    1.866922     4B2g    1.866922    11Ag     1.866922
       4B3g    1.866922     7B3u    1.975566     7B2u    1.975566
       7B1u    1.975566     8B3u    1.975566     2Au     1.975566
       8B1u    1.975566     8B2u    1.975566    12Ag     2.044058
      13Ag     2.149520     5B1g    2.149520     5B2g    2.149520
       5B3g    2.149520    14Ag     2.149520     9B2u    3.128013
       9B1u    3.128013     9B3u    3.128013    10B3u    3.832492
      10B1u    3.832492    10B2u    3.832492     3Au     3.832492
      11B3u    3.832492    11B1u    3.832492    11B2u    3.832492
       4Au     3.832492    12B3u    3.832492    12B1u    3.832492
      12B2u    3.832492    15Ag     4.452324     6B1g    4.452324
       6B2g    4.452324     6B3g    4.452324    16Ag     4.452324
       7B1g    4.452324     7B2g    4.452324     7B3g    4.452324
      17Ag     4.452324    13B3u    4.483760    13B1u    4.483760
      13B2u    4.483760     5Au     4.483760    14B3u    4.483760
      14B1u    4.483760    14B2u    4.483760    18Ag     4.938236
       8B3g    4.938236     8B1g    4.938236     8B2g    4.938236
      19Ag     4.938236    20Ag     6.428722    15B2u    8.914318
      15B1u    8.914318    15B3u    8.914318    16B1u    9.329499
      16B2u    9.329499     6Au     9.329499    16B3u    9.329499
      17B1u    9.329499    17B2u    9.329499     7Au     9.329499
      17B3u    9.329499    18B1u    9.329499    18B2u    9.329499
      18B3u    9.329499    19B1u   10.482276    19B2u   10.482276
      19B3u   10.482276     8Au    10.482276    20B1u   10.482276
      20B2u   10.482276    20B3u   10.482276    21Ag    10.771897
       9B3g   10.771897     9B2g   10.771897     9B1g   10.771897
      10B3g   10.771897    22Ag    10.771897    10B2g   10.771897
      10B1g   10.771897    23Ag    10.771897    24Ag    12.368489
      11B3g   12.368489    11B1g   12.368489    11B2g   12.368489
      25Ag    12.368489    26Ag    34.516085

    Final Occupation by Irrep:
             Ag   B1g   B2g   B3g    Au   B1u   B2u   B3u
    DOCC [     2,    0,    0,    0,    0,    0,    0,    0 ]
    SOCC [     0,    0,    0,    0,    0,    1,    1,    1 ]

  Energy converged.

  @UHF Final Energy:   -37.71026296757577

   => Energetics <=

    Nuclear Repulsion Energy =              0.0000000000000000
    One-Electron Energy =                 -52.5461334722931284
    Two-Electron Energy =                  14.8358705047173558
    Total Energy =                        -37.7102629675757726

  UHF NO Occupations:
  HONO-2 :    1B3u 1.0000000
  HONO-1 :    1B1u 1.0000000
  HONO-0 :    1B2u 1.0000000
  LUNO+0 :    3 Ag 0.0034654
  LUNO+1 :    4 Ag 0.0000034
  LUNO+2 :    5 Ag 0.0000000
  LUNO+3 :    2B3u 0.0000000

Properties will be evaluated at   0.000000,   0.000000,   0.000000 Bohr

Properties computed using the SCF density matrix

  Nuclear Dipole Moment: (a.u.)
     X:     0.0000      Y:     0.0000      Z:     0.0000

  Electronic Dipole Moment: (a.u.)
     X:     0.0000      Y:     0.0000      Z:     0.0000

  Dipole Moment: (a.u.)
     X:     0.0000      Y:     0.0000      Z:     0.0000     Total:     0.0000

  Dipole Moment: (Debye)
     X:     0.0000      Y:     0.0000      Z:     0.0000     Total:     0.0000

*** tstop() called on cqc05 at Fri Aug 21 06:49:35 2020
Module time:
	user time   =       6.52 seconds =       0.11 minutes
	system time =       0.22 seconds =       0.00 minutes
	total time  =          6 seconds =       0.10 minutes
Total time:
	user time   =       6.52 seconds =       0.11 minutes
	system time =       0.22 seconds =       0.00 minutes
	total time  =          6 seconds =       0.10 minutes

*** tstart() called on cqc05
*** at Fri Aug 21 06:49:35 2020

	Wfn Parameters:
	--------------------
	Wavefunction         = CCSD
	Number of irreps     = 8
	Number of MOs        = 127
	Number of active MOs = 126
	AO-Basis             = NONE
	Semicanonical        = false
	Reference            = UHF
	Print Level          = 1

	IRREP	# MOs	# FZDC	# DOCC	# SOCC	# VIRT	# FZVR
	-----	-----	------	------	------	------	------
	 Ag	   26	    1	    1	    0	    24	    0
	 B1g	   11	    0	    0	    0	    11	    0
	 B2g	   11	    0	    0	    0	    11	    0
	 B3g	   11	    0	    0	    0	    11	    0
	 Au	   8	    0	    0	    0	    8	    0
	 B1u	   20	    0	    0	    1	    19	    0
	 B2u	   20	    0	    0	    1	    19	    0
	 B3u	   20	    0	    0	    1	    19	    0
	Transforming integrals...
	IWL integrals will be deleted.
	(OO|OO)...
	Presorting SO-basis two-electron integrals.
	Sorting File: SO Ints (nn|nn) nbuckets = 1
	Transforming the one-electron integrals and constructing Fock matrices
	Starting AA/AB first half-transformation.
	Sorting AA/AB half-transformed integrals.
	Starting BB first half-transformation.
	Sorting BB half-transformed integrals.
	First half integral transformation complete.
	Starting AA second half-transformation.
	Starting AB second half-transformation.
	Starting BB second half-transformation.
	Two-electron integral transformation complete.
	(OO|OV)...
	Starting AA second half-transformation.
	Starting AB second half-transformation.
	Starting BB second half-transformation.
	Two-electron integral transformation complete.
	(OO|VV)...
	Starting AA second half-transformation.
	Starting AB second half-transformation.
	Starting BB second half-transformation.
	Two-electron integral transformation complete.
	(OV|OO)...
	Starting AA/AB first half-transformation.
	Sorting AA/AB half-transformed integrals.
	Starting BB first half-transformation.
	Sorting BB half-transformed integrals.
	First half integral transformation complete.
	Starting AA second half-transformation.
	Starting AB second half-transformation.
	Starting BB second half-transformation.
	Two-electron integral transformation complete.
	(OV|OV)...
	Starting AA second half-transformation.
	Starting AB second half-transformation.
	Starting BB second half-transformation.
	Two-electron integral transformation complete.
	(OV|VV)...
	Starting AA second half-transformation.
	Starting AB second half-transformation.
	Starting BB second half-transformation.
	Two-electron integral transformation complete.
	(VV|OO)...
	Starting AA/AB first half-transformation.
	Sorting AA/AB half-transformed integrals.
	Starting BB first half-transformation.
	Sorting BB half-transformed integrals.
	First half integral transformation complete.
	Starting AA second half-transformation.
	Starting AB second half-transformation.
	Starting BB second half-transformation.
	Two-electron integral transformation complete.
	(VV|OV)...
	Starting AA second half-transformation.
	Starting AB second half-transformation.
	Starting BB second half-transformation.
	Two-electron integral transformation complete.
	(VV|VV)...
	Starting AA second half-transformation.
	Starting AB second half-transformation.
	Starting BB second half-transformation.
	Two-electron integral transformation complete.
	Frozen core energy     =    -32.35984135164136

	Size of irrep 0 of <AB|CD> integrals:      0.964 (MW) /      7.715 (MB)
	Size of irrep 1 of <AB|CD> integrals:      0.806 (MW) /      6.451 (MB)
	Size of irrep 2 of <AB|CD> integrals:      0.806 (MW) /      6.451 (MB)
	Size of irrep 3 of <AB|CD> integrals:      0.806 (MW) /      6.451 (MB)
	Size of irrep 4 of <AB|CD> integrals:      0.671 (MW) /      5.366 (MB)
	Size of irrep 5 of <AB|CD> integrals:      0.925 (MW) /      7.404 (MB)
	Size of irrep 6 of <AB|CD> integrals:      0.925 (MW) /      7.404 (MB)
	Size of irrep 7 of <AB|CD> integrals:      0.925 (MW) /      7.404 (MB)
	Total:                                     6.831 (MW) /     54.645 (MB)

	Size of irrep 0 of <ab|cd> integrals:      1.080 (MW) /      8.636 (MB)
	Size of irrep 1 of <ab|cd> integrals:      0.893 (MW) /      7.144 (MB)
	Size of irrep 2 of <ab|cd> integrals:      0.893 (MW) /      7.144 (MB)
	Size of irrep 3 of <ab|cd> integrals:      0.893 (MW) /      7.144 (MB)
	Size of irrep 4 of <ab|cd> integrals:      0.726 (MW) /      5.807 (MB)
	Size of irrep 5 of <ab|cd> integrals:      1.016 (MW) /      8.129 (MB)
	Size of irrep 6 of <ab|cd> integrals:      1.016 (MW) /      8.129 (MB)
	Size of irrep 7 of <ab|cd> integrals:      1.016 (MW) /      8.129 (MB)
	Total:                                     7.533 (MW) /     60.262 (MB)

	Size of irrep 0 of <Ab|Cd> integrals:      4.592 (MW) /     36.740 (MB)
	Size of irrep 1 of <Ab|Cd> integrals:      3.393 (MW) /     27.144 (MB)
	Size of irrep 2 of <Ab|Cd> integrals:      3.393 (MW) /     27.144 (MB)
	Size of irrep 3 of <Ab|Cd> integrals:      3.393 (MW) /     27.144 (MB)
	Size of irrep 4 of <Ab|Cd> integrals:      2.792 (MW) /     22.338 (MB)
	Size of irrep 5 of <Ab|Cd> integrals:      3.881 (MW) /     31.047 (MB)
	Size of irrep 6 of <Ab|Cd> integrals:      3.881 (MW) /     31.047 (MB)
	Size of irrep 7 of <Ab|Cd> integrals:      3.881 (MW) /     31.047 (MB)
	Total:                                    29.206 (MW) /    233.650 (MB)

	Size of irrep 0 of <IA|BC> integrals:      0.169 (MW) /      1.352 (MB)
	Size of irrep 1 of <IA|BC> integrals:      0.102 (MW) /      0.819 (MB)
	Size of irrep 2 of <IA|BC> integrals:      0.102 (MW) /      0.819 (MB)
	Size of irrep 3 of <IA|BC> integrals:      0.102 (MW) /      0.819 (MB)
	Size of irrep 4 of <IA|BC> integrals:      0.067 (MW) /      0.537 (MB)
	Size of irrep 5 of <IA|BC> integrals:      0.125 (MW) /      1.000 (MB)
	Size of irrep 6 of <IA|BC> integrals:      0.125 (MW) /      1.000 (MB)
	Size of irrep 7 of <IA|BC> integrals:      0.125 (MW) /      1.000 (MB)
	Total:                                     0.918 (MW) /      7.347 (MB)

	Size of irrep 0 of <ia|bc> integrals:      0.053 (MW) /      0.423 (MB)
	Size of irrep 1 of <ia|bc> integrals:      0.021 (MW) /      0.166 (MB)
	Size of irrep 2 of <ia|bc> integrals:      0.021 (MW) /      0.166 (MB)
	Size of irrep 3 of <ia|bc> integrals:      0.021 (MW) /      0.166 (MB)
	Size of irrep 4 of <ia|bc> integrals:      0.014 (MW) /      0.109 (MB)
	Size of irrep 5 of <ia|bc> integrals:      0.040 (MW) /      0.323 (MB)
	Size of irrep 6 of <ia|bc> integrals:      0.040 (MW) /      0.323 (MB)
	Size of irrep 7 of <ia|bc> integrals:      0.040 (MW) /      0.323 (MB)
	Total:                                     0.250 (MW) /      1.999 (MB)

	Size of irrep 0 of <Ia|Bc> integrals:      0.180 (MW) /      1.440 (MB)
	Size of irrep 1 of <Ia|Bc> integrals:      0.109 (MW) /      0.869 (MB)
	Size of irrep 2 of <Ia|Bc> integrals:      0.109 (MW) /      0.869 (MB)
	Size of irrep 3 of <Ia|Bc> integrals:      0.109 (MW) /      0.869 (MB)
	Size of irrep 4 of <Ia|Bc> integrals:      0.069 (MW) /      0.548 (MB)
	Size of irrep 5 of <Ia|Bc> integrals:      0.130 (MW) /      1.040 (MB)
	Size of irrep 6 of <Ia|Bc> integrals:      0.130 (MW) /      1.040 (MB)
	Size of irrep 7 of <Ia|Bc> integrals:      0.130 (MW) /      1.040 (MB)
	Total:                                     0.965 (MW) /      7.717 (MB)

	Size of irrep 0 of <iA|bC> integrals:      0.051 (MW) /      0.411 (MB)
	Size of irrep 1 of <iA|bC> integrals:      0.020 (MW) /      0.162 (MB)
	Size of irrep 2 of <iA|bC> integrals:      0.020 (MW) /      0.162 (MB)
	Size of irrep 3 of <iA|bC> integrals:      0.020 (MW) /      0.162 (MB)
	Size of irrep 4 of <iA|bC> integrals:      0.013 (MW) /      0.107 (MB)
	Size of irrep 5 of <iA|bC> integrals:      0.037 (MW) /      0.299 (MB)
	Size of irrep 6 of <iA|bC> integrals:      0.037 (MW) /      0.299 (MB)
	Size of irrep 7 of <iA|bC> integrals:      0.037 (MW) /      0.299 (MB)
	Total:                                     0.238 (MW) /      1.903 (MB)

	Size of irrep 0 of tIjAb amplitudes:       0.002 (MW) /      0.017 (MB)
	Size of irrep 1 of tIjAb amplitudes:       0.000 (MW) /      0.000 (MB)
	Size of irrep 2 of tIjAb amplitudes:       0.000 (MW) /      0.000 (MB)
	Size of irrep 3 of tIjAb amplitudes:       0.000 (MW) /      0.000 (MB)
	Size of irrep 4 of tIjAb amplitudes:       0.000 (MW) /      0.000 (MB)
	Size of irrep 5 of tIjAb amplitudes:       0.002 (MW) /      0.016 (MB)
	Size of irrep 6 of tIjAb amplitudes:       0.002 (MW) /      0.016 (MB)
	Size of irrep 7 of tIjAb amplitudes:       0.002 (MW) /      0.016 (MB)
	Total:                                     0.008 (MW) /      0.064 (MB)

	Nuclear Rep. energy          =      0.00000000000000
	SCF energy                   =    -37.71026296757577
	One-electron energy          =     -9.72823306958095
	Two-electron (AA) energy     =      2.40708861838832
	Two-electron (BB) energy     =      0.00000000000000
	Two-electron (AB) energy     =      1.97072283525776
	Two-electron energy          =      4.37781145364608
	Reference energy             =    -37.71026296757623

*** tstop() called on cqc05 at Fri Aug 21 06:49:39 2020
Module time:
	user time   =       2.32 seconds =       0.04 minutes
	system time =       1.35 seconds =       0.02 minutes
	total time  =          4 seconds =       0.07 minutes
Total time:
	user time   =       8.84 seconds =       0.15 minutes
	system time =       1.57 seconds =       0.03 minutes
	total time  =         10 seconds =       0.17 minutes

*** tstart() called on cqc05
*** at Fri Aug 21 06:49:39 2020

            **************************
            *                        *
            *        CCENERGY        *
            *                        *
            **************************

    Nuclear Rep. energy (wfn)     =    0.000000000000000
    SCF energy          (wfn)     =  -37.710262967575773
    Reference energy    (file100) =  -37.710262967576234

    Input parameters:
    -----------------
    Wave function   =     CCSD
    Reference wfn   =     UHF
    Brueckner       =     No
    Memory (Mbytes) =     250000.0
    Maxiter         =     50
    R_Convergence   =     1.0e-07
    E_Convergence   =     1.0e-06
    Restart         =     Yes
    DIIS            =     Yes
    AO Basis        =     NONE
    ABCD            =     NEW
    Cache Level     =     2
    Cache Type      =     LRU
    Print Level     =     1
    Num. of threads =     4
    # Amps to Print =     10
    Print MP2 Amps? =     No
    Analyze T2 Amps =     No
    Print Pair Ener =     No
    Local CC        =     No
    SCS-MP2         =     False
    SCSN-MP2        =     False
    SCS-CCSD        =     False

MP2 correlation energy -0.1054431342945677
                Solving CC Amplitude Equations
                ------------------------------
  Iter             Energy              RMS        T1Diag      D1Diag    New D1Diag    D2Diag
  ----     ---------------------    ---------   ----------  ----------  ----------   --------
     0        -0.105443134294577    0.000e+00    0.000000    0.000000    0.000000    0.000000
     1        -0.114139104308622    4.422e-02    0.011981    0.000000    0.000000    0.000000
     2        -0.117790715130284    1.939e-02    0.018816    0.000000    0.000000    0.000000
     3        -0.118524431712766    1.094e-02    0.024845    0.000000    0.000000    0.000000
     4        -0.118423859405200    4.733e-03    0.028770    0.000000    0.000000    0.000000
     5        -0.118445013711047    1.451e-03    0.029858    0.000000    0.000000    0.000000
     6        -0.118427811401555    3.664e-04    0.029890    0.000000    0.000000    0.000000
     7        -0.118431486907021    1.211e-04    0.029929    0.000000    0.000000    0.000000
     8        -0.118431554762657    3.657e-05    0.029927    0.000000    0.000000    0.000000

      * MP2 total energy                      =  -37.815706101870802
      * CCSD total energy                     =  -37.828694536155638
*** Psi4 exiting successfully. Buy a developer a beer!
