                               Psi4 1.2a1.dev939

  ==> Input File <==

--------------------------------------------------------------------------
# Any line starting with the # character is a comment line

memory 32000 mb

molecule molecule {
0 1
S          0.0000000000        0.0000000000       -0.0547163639
H          0.0000000000        0.9606869869        0.8701939739
H          0.0000000000       -0.9606869869        0.8701939739
}

set {
  reference rhf
  basis aug-cc-pv(D+d)z
  scf_type OUT_OF_CORE
  freeze_core true
}

energy('ccsd')
--------------------------------------------------------------------------

    Molecular point group: c2v

    Geometry (in Angstrom), charge = 0, multiplicity = 1:

       Center              X                  Y                   Z               Mass
    ------------   -----------------  -----------------  -----------------  -----------------
           S          0.000000000000     0.000000000000    -0.054852032540    31.972070999000
           H         -0.000000000000     0.960686986900     0.870058305260     1.007825032070
           H          0.000000000000    -0.960686986900     0.870058305260     1.007825032070

  Charge       = 0
  Multiplicity = 1
  Basis Set: AUG-CC-PV(D+D)Z
    Blend: AUG-CC-PV(D+D)Z

    Orbital Energies (a.u.)
    -----------------------

    Doubly Occupied:

       1A1   -91.968939     2A1    -8.970983     1B2    -6.653139
       3A1    -6.652094     1B1    -6.649656     4A1    -0.984420
       2B2    -0.591786     5A1    -0.503055     2B1    -0.384453

  @RHF Final Energy:  -398.70224159603850

   => Energetics <=

    Nuclear Repulsion Energy =             12.9735234134097439
    One-Electron Energy =                -576.6344784286269487
    Two-Electron Energy =                 164.9587134191786788
    Total Energy =                       -398.7022415960384478
      * MP2 total energy                      = -398.858749072911849
      * CCSD total energy                     = -398.882528043255775
*** Psi4 exiting successfully. Buy a developer a beer!
