                               Psi4 1.2a1.dev939

  ==> Input File <==

--------------------------------------------------------------------------
# Any line starting with the # character is a comment line

memory 150000 mb

molecule molecule {
0 1
C          0.0000000000        0.0000000000        0.0000000000
O          0.0000000000        0.0000000000        1.1702257798
O          0.0000000000        0.0000000000       -1.1702257798
}

set {
  reference rhf

  basis aug-cc-pv(6+d)z
  scf_type OUT_OF_CORE
  freeze_core true
}

energy('ccsd')
--------------------------------------------------------------------------

    Molecular point group: d2h

    Geometry (in Angstrom), charge = 0, multiplicity = 1:

       Center              X                  Y                   Z               Mass
    ------------   -----------------  -----------------  -----------------  -----------------
           C          0.000000000000     0.000000000000     0.000000000000    12.000000000000
           O          0.000000000000     0.000000000000     1.170225779800    15.994914619560
           O          0.000000000000     0.000000000000    -1.170225779800    15.994914619560

  Charge       = 0
  Multiplicity = 1
  Basis Set: AUG-CC-PV(6+D)Z
    Blend: AUG-CC-PV(6+D)Z

    Orbital Energies (a.u.)
    -----------------------

    Doubly Occupied:

       1B1u  -20.652002     1Ag   -20.651959     2Ag   -11.464733
       3Ag    -1.525406     2B1u   -1.472340     4Ag    -0.801977
       3B1u   -0.742012     1B3u   -0.711745     1B2u   -0.711745
       1B2g   -0.544453     1B3g   -0.544453

  @RHF Final Energy:  -187.72255228172091

   => Energetics <=

    Nuclear Repulsion Energy =             57.8817215179589866
    One-Electron Energy =                -371.5628957396579040
    Two-Electron Energy =                 125.9586219399780305
    PCM Polarization Energy =               0.0000000000000000
    Total Energy =                       -187.7225522817209082
      * MP2 total energy                      = -188.400330811399613
      * CCSD total energy                     = -188.377028061460777
*** Psi4 exiting successfully. Buy a developer a beer!
