                               Psi4 1.2a1.dev939

  ==> Input File <==

--------------------------------------------------------------------------
# Any line starting with the # character is a comment line

memory 32000 mb

molecule molecule {
0 1
C          0.0000000000        0.0000000000        0.0000000000
O          0.0000000000        0.0000000000        1.1702257798
O          0.0000000000        0.0000000000       -1.1702257798
}

set {
  reference rhf

  basis aug-cc-pv(5+d)z
  scf_type OUT_OF_CORE
  freeze_core true
}

energy('ccsd')
--------------------------------------------------------------------------

    Molecular point group: d2h

    Geometry (in Angstrom), charge = 0, multiplicity = 1:

       Center              X                  Y                   Z               Mass
    ------------   -----------------  -----------------  -----------------  -----------------
           C          0.000000000000     0.000000000000     0.000000000000    12.000000000000
           O          0.000000000000     0.000000000000     1.170225779800    15.994914619560
           O          0.000000000000     0.000000000000    -1.170225779800    15.994914619560

  Charge       = 0
  Multiplicity = 1
  Basis Set: AUG-CC-PV(5+D)Z
    Blend: AUG-CC-PV(5+D)Z

    Orbital Energies (a.u.)
    -----------------------

    Doubly Occupied:

       1B1u  -20.652056     1Ag   -20.652013     2Ag   -11.464753
       3Ag    -1.525428     2B1u   -1.472361     4Ag    -0.801982
       3B1u   -0.742013     1B2u   -0.711746     1B3u   -0.711746
       1B3g   -0.544449     1B2g   -0.544449

  @RHF Final Energy:  -187.72222930601640

   => Energetics <=

    Nuclear Repulsion Energy =             57.8817215179589866
    One-Electron Energy =                -371.5619117932761242
    Two-Electron Energy =                 125.9579609693007569
    Total Energy =                       -187.7222293060164020
      * MP2 total energy                      = -188.392734418424368
      * CCSD total energy                     = -188.371839179216977
*** Psi4 exiting successfully. Buy a developer a beer!
