                               Psi4 1.2a1.dev939

  ==> Input File <==

--------------------------------------------------------------------------
# Any line starting with the # character is a comment line

memory 32000 mb

molecule molecule {
0 1
C          0.0000000000        0.0000000000        0.0000000000
O          0.0000000000        0.0000000000        1.1702257798
O          0.0000000000        0.0000000000       -1.1702257798
}

set {
  reference rhf
  basis aug-cc-pv(D+d)z
  scf_type OUT_OF_CORE
  freeze_core true
}

energy('ccsd')
--------------------------------------------------------------------------

    Molecular point group: d2h

    Geometry (in Angstrom), charge = 0, multiplicity = 1:

       Center              X                  Y                   Z               Mass
    ------------   -----------------  -----------------  -----------------  -----------------
           C          0.000000000000     0.000000000000     0.000000000000    12.000000000000
           O          0.000000000000     0.000000000000     1.170225779800    15.994914619560
           O          0.000000000000     0.000000000000    -1.170225779800    15.994914619560

  Charge       = 0
  Multiplicity = 1
  Basis Set: AUG-CC-PV(D+D)Z
    Blend: AUG-CC-PV(D+D)Z

    Orbital Energies (a.u.)
    -----------------------

    Doubly Occupied:

       1B1u  -20.665884     1Ag   -20.665855     2Ag   -11.481914
       3Ag    -1.532461     2B1u   -1.479587     4Ag    -0.804868
       3B1u   -0.744501     1B2u   -0.712094     1B3u   -0.712094
       1B2g   -0.544242     1B3g   -0.544242

  @RHF Final Energy:  -187.66069685224198

   => Energetics <=

    Nuclear Repulsion Energy =             57.8817215179589866
    One-Electron Energy =                -371.3093489632203159
    Two-Electron Energy =                 125.7669305930193531
    Total Energy =                       -187.6606968522419834
      * MP2 total energy                      = -188.169323688332980
      * CCSD total energy                     = -188.164407220837489
*** Psi4 exiting successfully. Buy a developer a beer!
