                               Psi4 1.2a1.dev939

  ==> Input File <==

--------------------------------------------------------------------------
# Any line starting with the # character is a comment line

memory 32000 mb

molecule molecule {
0 1
C          0.0000000000        0.0000000000        0.0000000000
O          0.0000000000        0.0000000000        1.1702257798
O          0.0000000000        0.0000000000       -1.1702257798
}

set {
  reference rhf
  basis aug-cc-pv(Q+d)z
  scf_type OUT_OF_CORE
  freeze_core true
}

energy('ccsd')
--------------------------------------------------------------------------

    Molecular point group: d2h

    Geometry (in Angstrom), charge = 0, multiplicity = 1:

       Center              X                  Y                   Z               Mass
    ------------   -----------------  -----------------  -----------------  -----------------
           C          0.000000000000     0.000000000000     0.000000000000    12.000000000000
           O          0.000000000000     0.000000000000     1.170225779800    15.994914619560
           O          0.000000000000     0.000000000000    -1.170225779800    15.994914619560

  Charge       = 0
  Multiplicity = 1
  Basis Set: AUG-CC-PV(Q+D)Z
    Blend: AUG-CC-PV(Q+D)Z

    Orbital Energies (a.u.)
    -----------------------

    Doubly Occupied:

       1B1u  -20.652805     1Ag   -20.652761     2Ag   -11.465136
       3Ag    -1.525689     2B1u   -1.472604     4Ag    -0.802071
       3B1u   -0.742016     1B2u   -0.711751     1B3u   -0.711751
       1B3g   -0.544436     1B2g   -0.544436

  @RHF Final Energy:  -187.71944190125123

   => Energetics <=

    Nuclear Repulsion Energy =             57.8817215179589866
    One-Electron Energy =                -371.5514186938750640
    Two-Electron Energy =                 125.9502552746648689
    Total Energy =                       -187.7194419012512299
      * MP2 total energy                      = -188.373788679853391
      * CCSD total energy                     = -188.357090990196667
*** Psi4 exiting successfully. Buy a developer a beer!
