                               Psi4 1.4a3.dev88

  ==> Input File <==

--------------------------------------------------------------------------
# Any line starting with the # character is a comment line
memory 250000 mb
molecule molecule{
0 1
Cl         0.0000000000        0.0000000000       -0.5693634997
F          0.0000000000        0.0000000000        1.0624916292
}

set {
  reference rhf
  basis aug-cc-pv(q+d)z
  scf_type OUT_OF_CORE
  freeze_core true
}

energy('ccsd(t)')
--------------------------------------------------------------------------

    Molecular point group: c2v

    Geometry (in Angstrom), charge = 0, multiplicity = 1:

       Center              X                  Y                   Z               Mass
    ------------   -----------------  -----------------  -----------------  -----------------
         CL           0.000000000000     0.000000000000    -0.574471337420    34.968852682000
         F            0.000000000000     0.000000000000     1.057383791480    18.998403162730

  Charge       = 0
  Multiplicity = 1
  Basis Set: AUG-CC-PV(Q+D)Z
    Blend: AUG-CC-PV(Q+D)Z

    Orbital Energies [Eh]
    ---------------------

    Doubly Occupied:

       1A1  -104.937940     2A1   -26.356063     3A1   -10.655472
       4A1    -8.123020     1B1    -8.119281     1B2    -8.119281
       5A1    -1.638879     6A1    -1.105668     2B1    -0.725747
       2B2    -0.725747     7A1    -0.700402     3B1    -0.493841
       3B2    -0.493841

  @RHF Final Energy:  -558.91682599082355

   => Energetics <=

    Nuclear Repulsion Energy =             49.6147677564283711
    One-Electron Energy =                -872.6728214792852896
    Two-Electron Energy =                 264.1412277320334283
    Total Energy =                       -558.9168259908235541

  Dipole Moment: [D]
     X:     0.0000      Y:     0.0000      Z:    -1.1210     Total:     1.1210

      * MP2 total energy                      = -559.411882589948050
      * CCSD total energy                     = -559.425687970372906
      * CCSD(T) total energy                  = -559.446372662442514
*** Psi4 exiting successfully. Buy a developer a beer!
