                               Psi4 1.4a3.dev88

  ==> Input File <==

--------------------------------------------------------------------------
# Any line starting with the # character is a comment line
memory 250000 mb
molecule molecule{
0 1
Cl         0.0000000000        0.0000000000       -0.5693634997
F          0.0000000000        0.0000000000        1.0624916292
}

set {
  reference rhf
  basis aug-cc-pV(5+d)Z
  scf_type OUT_OF_CORE
  freeze_core true
}

energy('ccsd(t)')
--------------------------------------------------------------------------

    Molecular point group: c2v

    Geometry (in Angstrom), charge = 0, multiplicity = 1:

       Center              X                  Y                   Z               Mass
    ------------   -----------------  -----------------  -----------------  -----------------
         CL           0.000000000000     0.000000000000    -0.574471337420    34.968852682000
         F            0.000000000000     0.000000000000     1.057383791480    18.998403162730

  Charge       = 0
  Multiplicity = 1
  Basis Set: AUG-CC-PV(5+D)Z
    Blend: AUG-CC-PV(5+D)Z

    Orbital Energies [Eh]
    ---------------------

    Doubly Occupied:

       1A1  -104.937619     2A1   -26.354861     3A1   -10.655282
       4A1    -8.122577     1B1    -8.119238     1B2    -8.119238
       5A1    -1.638382     6A1    -1.105482     2B1    -0.725649
       2B2    -0.725649     7A1    -0.700296     3B1    -0.493780
       3B2    -0.493780

  @RHF Final Energy:  -558.91945459528597

   => Energetics <=

    Nuclear Repulsion Energy =             49.6147677564283711
    One-Electron Energy =                -872.6847779059340837
    Two-Electron Energy =                 264.1505555542197499
    Total Energy =                       -558.9194545952859698

  Dipole Moment: [D]
     X:     0.0000      Y:     0.0000      Z:    -1.1202     Total:     1.1202

      * MP2 total energy                      = -559.430372368036160
      * CCSD total energy                     = -559.440165815064233
      * CCSD(T) total energy                  = -559.461644995552888
*** Psi4 exiting successfully. Buy a developer a beer!
