                               Psi4 1.4a3.dev88

  ==> Input File <==

--------------------------------------------------------------------------
# Any line starting with the # character is a comment line
memory 250000 mb
molecule molecule{
0 1
Cl         0.0000000000        0.0000000000       -0.5693634997
F          0.0000000000        0.0000000000        1.0624916292
}

set {
  reference rhf
  basis aug-cc-pV(6+d)Z
  scf_type OUT_OF_CORE
  freeze_core true
}

energy('ccsd(t)')
--------------------------------------------------------------------------

    Molecular point group: c2v

    Geometry (in Angstrom), charge = 0, multiplicity = 1:

       Center              X                  Y                   Z               Mass
    ------------   -----------------  -----------------  -----------------  -----------------
         CL           0.000000000000     0.000000000000    -0.574471337420    34.968852682000
         F            0.000000000000     0.000000000000     1.057383791480    18.998403162730

  Charge       = 0
  Multiplicity = 1
  Basis Set: AUG-CC-PV(6+D)Z
    Blend: AUG-CC-PV(6+D)Z

    Orbital Energies [Eh]
    ---------------------

    Doubly Occupied:

       1A1  -104.937039     2A1   -26.354738     3A1   -10.655074
       4A1    -8.122149     1B1    -8.119142     1B2    -8.119142
       5A1    -1.638305     6A1    -1.105439     2B1    -0.725607
       2B2    -0.725607     7A1    -0.700276     3B1    -0.493793
       3B2    -0.493793

  @RHF Final Energy:  -558.91987188693201

   => Energetics <=

    Nuclear Repulsion Energy =             49.6147677564283711
    One-Electron Energy =                -872.6890713455344439
    Two-Electron Energy =                 264.1544317021740653
    Total Energy =                       -558.9198718869320146

  Dipole Moment: [D]
     X:     0.0000      Y:     0.0000      Z:    -1.1208     Total:     1.1208

      * MP2 total energy                      = -559.438517223999611
      * CCSD total energy                     = -559.445786819072396
      * CCSD(T) total energy                  = -559.467586452502701
*** Psi4 exiting successfully. Buy a developer a beer!
