                               Psi4 1.2a1.dev939

  ==> Input File <==

--------------------------------------------------------------------------
# Any line starting with the # character is a comment line

memory 32000 mb

molecule molecule {
0 1
S          0.0000000000        0.0000000000        1.5587775077
C          0.0000000000        0.0000000000        0.0000000000
S          0.0000000000        0.0000000000       -1.5587775077
}

set {
  reference rhf
  basis aug-cc-pv(T+d)z
  scf_type OUT_OF_CORE
  freeze_core true
}

energy('ccsd')
--------------------------------------------------------------------------

    Molecular point group: d2h

    Geometry (in Angstrom), charge = 0, multiplicity = 1:

       Center              X                  Y                   Z               Mass
    ------------   -----------------  -----------------  -----------------  -----------------
           S          0.000000000000     0.000000000000     1.558777507700    31.972070999000
           C          0.000000000000     0.000000000000     0.000000000000    12.000000000000
           S          0.000000000000     0.000000000000    -1.558777507700    31.972070999000

  Charge       = 0
  Multiplicity = 1
  Basis Set: AUG-CC-PV(T+D)Z
    Blend: AUG-CC-PV(T+D)Z

    Orbital Energies (a.u.)
    -----------------------

    Doubly Occupied:

       1B1u  -91.992001     1Ag   -91.992000     2Ag   -11.403687
       2B1u   -8.995021     3Ag    -8.994999     3B1u   -6.676170
       4Ag    -6.676157     1B2g   -6.674091     1B3g   -6.674091
       1B3u   -6.674089     1B2u   -6.674089     5Ag    -1.141189
       4B1u   -1.019004     6Ag    -0.680312     5B1u   -0.583003
       2B2u   -0.524502     2B3u   -0.524502     2B2g   -0.372808
       2B3g   -0.372808

  @RHF Final Energy:  -832.97192666501724

   => Energetics <=

    Nuclear Repulsion Energy =            108.6343021453131570
    One-Electron Energy =               -1365.9234176643290084
    Two-Electron Energy =                 424.3171888539987435
    Total Energy =                       -832.9719266650172358
      * MP2 total energy                      = -833.475429609690309
      * CCSD total energy                     = -833.486658233521553
*** Psi4 exiting successfully. Buy a developer a beer!
