                               Psi4 1.2a1.dev939

  ==> Input File <==

--------------------------------------------------------------------------
# Any line starting with the # character is a comment line

memory 32000 mb

molecule molecule {
0 1
S          0.0000000000        0.0000000000        1.5587775077
C          0.0000000000        0.0000000000        0.0000000000
S          0.0000000000        0.0000000000       -1.5587775077
}

set {
  reference rhf
  basis aug-cc-pv(Q+d)z
  scf_type OUT_OF_CORE
  freeze_core true
}

energy('ccsd')
--------------------------------------------------------------------------

    Molecular point group: d2h

    Geometry (in Angstrom), charge = 0, multiplicity = 1:

       Center              X                  Y                   Z               Mass
    ------------   -----------------  -----------------  -----------------  -----------------
           S          0.000000000000     0.000000000000     1.558777507700    31.972070999000
           C          0.000000000000     0.000000000000     0.000000000000    12.000000000000
           S          0.000000000000     0.000000000000    -1.558777507700    31.972070999000

  Charge       = 0
  Multiplicity = 1
  Basis Set: AUG-CC-PV(Q+D)Z
    Blend: AUG-CC-PV(Q+D)Z

    Orbital Energies (a.u.)
    -----------------------

    Doubly Occupied:

       1B1u  -91.990256     1Ag   -91.990256     2Ag   -11.401734
       2B1u   -8.994083     3Ag    -8.994061     3B1u   -6.675364
       4Ag    -6.675352     1B2g   -6.673560     1B3g   -6.673560
       1B3u   -6.673560     1B2u   -6.673560     5Ag    -1.140539
       4B1u   -1.018482     6Ag    -0.679987     5B1u   -0.582765
       2B3u   -0.524282     2B2u   -0.524282     2B2g   -0.372695
       2B3g   -0.372695

  @RHF Final Energy:  -832.98036068159752

   => Energetics <=

    Nuclear Repulsion Energy =            108.6343021453131570
    One-Electron Energy =               -1365.9671809214644327
    Two-Electron Energy =                 424.3525180945537727
    Total Energy =                       -832.9803606815976309
      * MP2 total energy                      = -833.517090253069796
      * CCSD total energy                     = -833.522171206159555
*** Psi4 exiting successfully. Buy a developer a beer!
