                               Psi4 1.2a1.dev939

  ==> Input File <==

--------------------------------------------------------------------------
# Any line starting with the # character is a comment line

memory 32000 mb

molecule molecule {
0 1
S          0.0000000000        0.0000000000        1.5587775077
C          0.0000000000        0.0000000000        0.0000000000
S          0.0000000000        0.0000000000       -1.5587775077
}

set {
  reference rhf
  basis aug-cc-pv(D+d)z
  scf_type OUT_OF_CORE
  freeze_core true
}

energy('ccsd')
--------------------------------------------------------------------------

    Molecular point group: d2h

    Geometry (in Angstrom), charge = 0, multiplicity = 1:

       Center              X                  Y                   Z               Mass
    ------------   -----------------  -----------------  -----------------  -----------------
           S          0.000000000000     0.000000000000     1.558777507700    31.972070999000
           C          0.000000000000     0.000000000000     0.000000000000    12.000000000000
           S          0.000000000000     0.000000000000    -1.558777507700    31.972070999000

  Charge       = 0
  Multiplicity = 1
  Basis Set: AUG-CC-PV(D+D)Z
    Blend: AUG-CC-PV(D+D)Z

    Orbital Energies (a.u.)
    -----------------------

    Doubly Occupied:

       1B1u  -91.995450     1Ag   -91.995448     2Ag   -11.408322
       2B1u   -8.998991     3Ag    -8.998956     3B1u   -6.681192
       4Ag    -6.681183     1B2g   -6.677795     1B3g   -6.677795
       1B3u   -6.677794     1B2u   -6.677794     5Ag    -1.146635
       4B1u   -1.023871     6Ag    -0.682291     5B1u   -0.585093
       2B2u   -0.525233     2B3u   -0.525233     2B2g   -0.374194
       2B3g   -0.374194

  @RHF Final Energy:  -832.94014024098340

   => Energetics <=

    Nuclear Repulsion Energy =            108.6343021453131570
    One-Electron Energy =               -1365.7339534384766466
    Two-Electron Energy =                 424.1595110521801075
    Total Energy =                       -832.9401402409835100
      * MP2 total energy                      = -833.355752183857931
      * CCSD total energy                     = -833.368407094234840
*** Psi4 exiting successfully. Buy a developer a beer!
