                               Psi4 1.2a1.dev939

  ==> Input File <==

--------------------------------------------------------------------------
# Any line starting with the # character is a comment line

memory 32000 mb

molecule molecule {
0 1
S          0.0000000000        0.0000000000        1.5587775077
C          0.0000000000        0.0000000000        0.0000000000
S          0.0000000000        0.0000000000       -1.5587775077
}

set {
  reference rhf

  basis aug-cc-pv(5+d)z
  scf_type OUT_OF_CORE
  freeze_core true
}

energy('ccsd')
--------------------------------------------------------------------------

    Molecular point group: d2h

    Geometry (in Angstrom), charge = 0, multiplicity = 1:

       Center              X                  Y                   Z               Mass
    ------------   -----------------  -----------------  -----------------  -----------------
           S          0.000000000000     0.000000000000     1.558777507700    31.972070999000
           C          0.000000000000     0.000000000000     0.000000000000    12.000000000000
           S          0.000000000000     0.000000000000    -1.558777507700    31.972070999000

  Charge       = 0
  Multiplicity = 1
  Basis Set: AUG-CC-PV(5+D)Z
    Blend: AUG-CC-PV(5+D)Z

    Orbital Energies (a.u.)
    -----------------------

    Doubly Occupied:

       1B1u  -91.990805     1Ag   -91.990805     2Ag   -11.401417
       2B1u   -8.994094     3Ag    -8.994073     3B1u   -6.675284
       4Ag    -6.675272     1B2g   -6.673625     1B3g   -6.673625
       1B3u   -6.673624     1B2u   -6.673624     5Ag    -1.140348
       4B1u   -1.018353     6Ag    -0.679961     5B1u   -0.582776
       2B3u   -0.524229     2B2u   -0.524229     2B2g   -0.372649
       2B3g   -0.372649

  @RHF Final Energy:  -832.98184686600257

   => Energetics <=

    Nuclear Repulsion Energy =            108.6343021453131570
    One-Electron Energy =               -1365.9694157859021288
    Two-Electron Energy =                 424.3532667745865297
    Total Energy =                       -832.9818468660025701
      * MP2 total energy                      = -833.533400203988890
      * CCSD total energy                     = -833.533309202054966
*** Psi4 exiting successfully. Buy a developer a beer!
