                               Psi4 1.2a1.dev939

  ==> Input File <==

--------------------------------------------------------------------------
# Any line starting with the # character is a comment line

memory 250000 mb

molecule molecule {
0 1
S          0.0000000000        0.0000000000        1.5587775077
C          0.0000000000        0.0000000000        0.0000000000
S          0.0000000000        0.0000000000       -1.5587775077
}

set {
  reference rhf

  basis aug-cc-pv(6+d)z
  scf_type OUT_OF_CORE
  freeze_core true
}

energy('ccsd')
--------------------------------------------------------------------------

    Molecular point group: d2h

    Geometry (in Angstrom), charge = 0, multiplicity = 1:

       Center              X                  Y                   Z               Mass
    ------------   -----------------  -----------------  -----------------  -----------------
           S          0.000000000000     0.000000000000     1.558777507700    31.972070999000
           C          0.000000000000     0.000000000000     0.000000000000    12.000000000000
           S          0.000000000000     0.000000000000    -1.558777507700    31.972070999000

  Charge       = 0
  Multiplicity = 1
  Basis Set: AUG-CC-PV(6+D)Z
    Blend: AUG-CC-PV(6+D)Z

    Orbital Energies (a.u.)
    -----------------------

    Doubly Occupied:

       1B1u  -91.990817     1Ag   -91.990816     2Ag   -11.401342
       2B1u   -8.994020     3Ag    -8.993998     3B1u   -6.675196
       4Ag    -6.675185     1B3g   -6.673602     1B2g   -6.673602
       1B2u   -6.673602     1B3u   -6.673602     5Ag    -1.140289
       4B1u   -1.018302     6Ag    -0.679960     5B1u   -0.582783
       2B2u   -0.524204     2B3u   -0.524204     2B3g   -0.372633
       2B2g   -0.372633

  @RHF Final Energy:  -832.98226849810510

   => Energetics <=

    Nuclear Repulsion Energy =            108.6343021453131570
    One-Electron Energy =               -1365.9715634745534771
    Two-Electron Energy =                 424.3549928311352915
    Total Energy =                       -832.9822684981050998
      * MP2 total energy                      = -833.540690593988188
      * CCSD total energy                     = -833.537642529189384
*** Psi4 exiting successfully. Buy a developer a beer!
