                               Psi4 1.2a1.dev939

  ==> Input File <==

--------------------------------------------------------------------------
# Any line starting with the # character is a comment line
memory 250000 mb
molecule molecule{
0 1
Si         0.0000000000        0.0000000000        0.0702843423
H          0.0000000000       -1.0886337295       -0.9792105160
H          0.0000000000        1.0886337295       -0.9792105160
}

set {
  reference rhf
  basis aug-cc-pv(6+d)z
  scf_type OUT_OF_CORE
  freeze_core true
}

energy('ccsd')
--------------------------------------------------------------------------

    Molecular point group: c2v

    Geometry (in Angstrom), charge = 0, multiplicity = 1:

       Center              X                  Y                   Z               Mass
    ------------   -----------------  -----------------  -----------------  -----------------
          SI         -0.000000000000     0.000000000000     0.070531265349    27.976926532460
           H          0.000000000000    -1.088633729500    -0.978963592951     1.007825032070
           H         -0.000000000000     1.088633729500    -0.978963592951     1.007825032070

  Charge       = 0
  Multiplicity = 1
  Basis Set: AUG-CC-PV(6+D)Z
    Blend: AUG-CC-PV(6+D)Z

    Orbital Energies (a.u.)
    -----------------------

    Doubly Occupied:

       1A1   -68.798775     2A1    -6.143987     1B1    -4.246919
       1B2    -4.245622     3A1    -4.245112     4A1    -0.675527
       2B2    -0.460384     5A1    -0.338486

  @RHF Final Energy:  -290.03549224890952

   => Energetics <=

    Nuclear Repulsion Energy =             10.0417268357264096
    One-Electron Energy =                -421.8448165283413687
    Two-Electron Energy =                 121.7675974437054833
    Total Energy =                       -290.0354922489094633
      * MP2 total energy                      = -290.157217624251018
      * CCSD total energy                     = -290.179918614706878
*** Psi4 exiting successfully. Buy a developer a beer!
