                               Psi4 1.2a1.dev939

  ==> Input File <==

--------------------------------------------------------------------------
# Any line starting with the # character is a comment line

memory 32000 mb

molecule molecule {
0 1
Si         0.0000000000        0.0000000000        0.0702843423
H          0.0000000000       -1.0886337295       -0.9792105160
H          0.0000000000        1.0886337295       -0.9792105160
}

set {
  reference rhf
  basis aug-cc-pv(T+d)z
  scf_type OUT_OF_CORE
  freeze_core true
}

energy('ccsd')
--------------------------------------------------------------------------

    Molecular point group: c2v

    Geometry (in Angstrom), charge = 0, multiplicity = 1:

       Center              X                  Y                   Z               Mass
    ------------   -----------------  -----------------  -----------------  -----------------
          SI         -0.000000000000     0.000000000000     0.070531265349    27.976926532460
           H          0.000000000000    -1.088633729500    -0.978963592951     1.007825032070
           H         -0.000000000000     1.088633729500    -0.978963592951     1.007825032070

  Charge       = 0
  Multiplicity = 1
  Basis Set: AUG-CC-PV(T+D)Z
    Blend: AUG-CC-PV(T+D)Z

    Orbital Energies (a.u.)
    -----------------------

    Doubly Occupied:

       1A1   -68.799741     2A1    -6.145161     1B1    -4.248054
       1B2    -4.246588     3A1    -4.245960     4A1    -0.675832
       2B2    -0.460207     5A1    -0.338381

  @RHF Final Energy:  -290.03214342333757

   => Energetics <=

    Nuclear Repulsion Energy =             10.0417268357264096
    One-Electron Energy =                -421.8278945782252549
    Two-Electron Energy =                 121.7540243191612461
    Total Energy =                       -290.0321434233375726
      * MP2 total energy                      = -290.143433366457998
      * CCSD total energy                     = -290.170459495844568
*** Psi4 exiting successfully. Buy a developer a beer!
