                               Psi4 1.2a1.dev939

  ==> Input File <==

--------------------------------------------------------------------------
# Any line starting with the # character is a comment line

memory 32000 mb

molecule molecule {
0 1
Si         0.0000000000        0.0000000000        0.0702843423
H          0.0000000000       -1.0886337295       -0.9792105160
H          0.0000000000        1.0886337295       -0.9792105160
}

set {
  reference rhf
  basis aug-cc-pv(D+d)z
  scf_type OUT_OF_CORE
  freeze_core true
}

energy('ccsd')
--------------------------------------------------------------------------

    Molecular point group: c2v

    Geometry (in Angstrom), charge = 0, multiplicity = 1:

       Center              X                  Y                   Z               Mass
    ------------   -----------------  -----------------  -----------------  -----------------
          SI         -0.000000000000     0.000000000000     0.070531265349    27.976926532460
           H          0.000000000000    -1.088633729500    -0.978963592951     1.007825032070
           H         -0.000000000000     1.088633729500    -0.978963592951     1.007825032070

  Charge       = 0
  Multiplicity = 1
  Basis Set: AUG-CC-PV(D+D)Z
    Blend: AUG-CC-PV(D+D)Z

    Orbital Energies (a.u.)
    -----------------------

    Doubly Occupied:

       1A1   -68.805477     2A1    -6.149016     1B1    -4.252932
       1B2    -4.250492     3A1    -4.249423     4A1    -0.676732
       2B2    -0.459160     5A1    -0.337943

  @RHF Final Energy:  -290.02270504764800

   => Energetics <=

    Nuclear Repulsion Energy =             10.0417268357264096
    One-Electron Energy =                -421.7665151694261567
    Two-Electron Energy =                 121.7020832860517316
    Total Energy =                       -290.0227050476480031
      * MP2 total energy                      = -290.115646367902741
      * CCSD total energy                     = -290.145054340302238
*** Psi4 exiting successfully. Buy a developer a beer!
