                               Psi4 1.2a1.dev939

  ==> Input File <==

--------------------------------------------------------------------------
# Any line starting with the # character is a comment line
memory 250000 mb
molecule molecule{
-1 3
P          0.0000000000        0.0000000000        0.5283745064
O          0.0000000000        0.0000000000       -1.0228974307
}

set {
  reference uhf
  basis aug-cc-pv(q+d)z
  scf_type OUT_OF_CORE
  freeze_core true
  DOCC [     7,    0,    2,    2 ]
  SOCC [     0,    0,    1,    1 ]

}

energy('ccsd')
--------------------------------------------------------------------------

    Molecular point group: c2v

    Geometry (in Angstrom), charge = -1, multiplicity = 3:

       Center              X                  Y                   Z               Mass
    ------------   -----------------  -----------------  -----------------  -----------------
           P          0.000000000000     0.000000000000     0.528276804190    30.973761629000
           O          0.000000000000     0.000000000000    -1.022995132910    15.994914619560

  Charge       = -1
  Multiplicity = 3
  Basis Set: AUG-CC-PV(Q+D)Z
    Blend: AUG-CC-PV(Q+D)Z

    Orbital Energies (a.u.)
    -----------------------

    Alpha Occupied:

       1A1   -79.733328     2A1   -20.309276     3A1    -7.270157
       1B2    -5.170174     1B1    -5.170174     4A1    -5.158582
       5A1    -1.078537     6A1    -0.519633     2B2    -0.320476
       2B1    -0.320476     7A1    -0.288680     3B2    -0.075453
       3B1    -0.075453

    Alpha Virtual:

       8A1     0.186009     9A1     0.194696     4B2     0.196023
       4B1     0.196023    10A1     0.295621     5B2     0.314532
       5B1     0.314532     1A2     0.318016    11A1     0.318016
      12A1     0.330573     6B1     0.368796     6B2     0.368796
      13A1     0.422037    14A1     0.437458     7B2     0.541641
       7B1     0.541641    15A1     0.597556    16A1     0.611392
       2A2     0.611392     8B1     0.619457     8B2     0.619457
      17A1     0.629821     3A2     0.629821     9B2     0.667521
       9B1     0.667521    18A1     0.673087    19A1     0.746729
      10B2     0.752694    10B1     0.752694    11B2     0.815264
      11B1     0.815264    20A1     0.852226     4A2     0.852226
      21A1     0.870260    22A1     0.943688    23A1     1.209121
      12B2     1.212695    12B1     1.212695     5A2     1.292420
      24A1     1.292420    13B2     1.319733    13B1     1.319733
      25A1     1.384249    26A1     1.436119     6A2     1.436119
      14B2     1.438722    14B1     1.438722    27A1     1.451829
       7A2     1.451829    15B2     1.452219    15B1     1.452219
      28A1     1.452393    16B2     1.507952    16B1     1.507952
      29A1     1.590388     8A2     1.590388    30A1     1.604371
      17B2     1.628877    17B1     1.628877    18B2     1.759782
      18B1     1.759782    19B1     1.821939    19B2     1.821939
      31A1     1.837311    32A1     1.901954     9A2     1.901954
      33A1     1.948116    20B2     2.159268    20B1     2.159268
      34A1     2.227323    35A1     2.297054    10A2     2.297054
      36A1     2.322061    21B2     2.573056    21B1     2.573056
      37A1     2.635610    11A2     2.774887    38A1     2.774887
      22B2     2.785306    22B1     2.785306    39A1     3.229732
      12A2     3.229732    40A1     3.259862    23B1     3.274364
      23B2     3.274364    41A1     3.365733    24B2     3.379165
      24B1     3.379165    25B2     3.445094    25B1     3.445094
      26B1     3.501085    26B2     3.501085    13A2     3.548583
      42A1     3.548583    43A1     3.620872    14A2     3.620872
      44A1     3.930617    45A1     3.948243    15A2     3.948243
      27B2     4.077341    27B1     4.077341    28B1     4.213322
      28B2     4.213322    46A1     4.338591    29B1     4.447900
      29B2     4.447900    47A1     4.573825    16A2     4.573825
      30B2     4.657739    30B1     4.657739    48A1     4.669069
      49A1     4.825370    17A2     4.825370    50A1     4.856647
      18A2     5.065451    51A1     5.065451    31B2     5.073757
      31B1     5.073757    52A1     5.570530    32B2     5.608593
      32B1     5.608593    53A1     6.076171    33B2     6.569242
      33B1     6.569242    54A1     7.856707    19A2     7.856707
      55A1     7.869238    34B2     8.166492    34B1     8.166492
      56A1     8.853756    57A1    10.924500    20A2    10.924500
      35B1    11.007391    35B2    11.007391    36B2    11.163657
      36B1    11.163657    21A2    11.211990    58A1    11.211990
      37B2    11.260686    37B1    11.260686    59A1    11.305670
      60A1    12.161419    38B1    12.197505    38B2    12.197505
      61A1    12.340215    22A2    12.340215    39B2    12.690668
      39B1    12.690668    62A1    12.701391    23A2    13.130544
      63A1    13.130544    40B2    13.610389    40B1    13.610389
      64A1    13.869989    65A1    16.932652    66A1    42.761592

    Beta Occupied:

       1A1   -79.725119     2A1   -20.283203     3A1    -7.260448
       4A1    -5.156455     1B2    -5.146033     1B1    -5.146033
       5A1    -1.008991     6A1    -0.415356     7A1    -0.218042
       2B2    -0.205484     2B1    -0.205484

    Beta Virtual:

       3B2     0.188157     3B1     0.188157     8A1     0.189357
       9A1     0.197422     4B2     0.302220     4B1     0.302220
      10A1     0.302680     5B2     0.322472     5B1     0.322472
      11A1     0.335066     1A2     0.335066    12A1     0.336202
       6B1     0.394511     6B2     0.394511    13A1     0.427422
      14A1     0.454666     7B2     0.579934     7B1     0.579934
      15A1     0.614572    16A1     0.629401     2A2     0.629401
       8B1     0.633793     8B2     0.633793    17A1     0.675201
       9B2     0.681633     9B1     0.681633    18A1     0.684675
       3A2     0.684675    19A1     0.758837    10B2     0.799638
      10B1     0.799638    11B2     0.826022    11B1     0.826022
      20A1     0.858844     4A2     0.858844    21A1     0.888524
      22A1     0.954580    23A1     1.220218    12B2     1.224961
      12B1     1.224961     5A2     1.340287    24A1     1.340287
      13B2     1.353520    13B1     1.353520    25A1     1.394853
      14B2     1.444519    14B1     1.444519    26A1     1.460943
       6A2     1.460943    27A1     1.461850    28A1     1.473264
       7A2     1.473264    15B2     1.499010    15B1     1.499010
      16B2     1.530210    16B1     1.530210    29A1     1.604499
       8A2     1.604499    30A1     1.619052    17B2     1.654429
      17B1     1.654429    18B2     1.777693    18B1     1.777693
      19B2     1.827066    19B1     1.827066    31A1     1.848649
      32A1     1.913614     9A2     1.913614    33A1     1.962042
      20B2     2.175148    20B1     2.175148    34A1     2.238297
      35A1     2.313605    10A2     2.313605    36A1     2.338730
      21B2     2.589585    21B1     2.589585    37A1     2.646248
      11A2     2.797132    38A1     2.797132    22B2     2.799269
      22B1     2.799269    39A1     3.246999    12A2     3.246999
      40A1     3.267337    23B1     3.311680    23B2     3.311680
      41A1     3.377270    24B2     3.397645    24B1     3.397645
      25B2     3.474056    25B1     3.474056    26B1     3.519762
      26B2     3.519762    42A1     3.582690    13A2     3.582690
      43A1     3.637382    14A2     3.637382    44A1     3.944389
      45A1     3.949945    15A2     3.949945    27B2     4.091236
      27B1     4.091236    28B1     4.219310    28B2     4.219310
      46A1     4.352366    29B1     4.464023    29B2     4.464023
      47A1     4.593635    16A2     4.593635    30B2     4.663515
      30B1     4.663515    48A1     4.674041    49A1     4.845588
      17A2     4.845588    50A1     4.873310    31B2     5.090589
      31B1     5.090589    18A2     5.091127    51A1     5.091127
      52A1     5.582334    32B2     5.631837    32B1     5.631837
      53A1     6.092697    33B2     6.589667    33B1     6.589667
      54A1     7.869152    19A2     7.869152    55A1     7.875567
      34B2     8.172455    34B1     8.172455    56A1     8.862980
      57A1    10.942647    20A2    10.942647    35B1    11.021468
      35B2    11.021468    36B2    11.189718    36B1    11.189718
      21A2    11.223284    58A1    11.223284    37B2    11.278659
      37B1    11.278659    59A1    11.314963    60A1    12.179460
      38B1    12.230585    38B2    12.230585    22A2    12.364541
      61A1    12.364541    39B2    12.709163    39B1    12.709163
      62A1    12.712892    23A2    13.171404    63A1    13.171404
      40B2    13.635204    40B1    13.635204    64A1    13.888297
      65A1    16.941219    66A1    42.777487

    Final Occupation by Irrep:
             A1    A2    B1    B2
    DOCC [     7,    0,    2,    2 ]
    SOCC [     0,    0,    1,    1 ]

  Energy converged.

  @UHF Final Energy:  -415.66187769401847

   => Energetics <=

    Nuclear Repulsion Energy =             40.9349666632346896
    One-Electron Energy =                -662.9326379206579531
    Two-Electron Energy =                 206.3357935634047635
    Total Energy =                       -415.6618776940184716

  UHF NO Occupations:
  HONO-2 :    7 A1 1.9906948
  HONO-1 :    3 B1 1.0000000
  HONO-0 :    3 B2 1.0000000
  LUNO+0 :    8 A1 0.0093052
  LUNO+1 :    4 B1 0.0064257
  LUNO+2 :    4 B2 0.0064257
  LUNO+3 :    9 A1 0.0005486

Properties will be evaluated at   0.000000,   0.000000,   0.000000 Bohr

Properties computed using the SCF density matrix

  Nuclear Dipole Moment: (a.u.)
     X:     0.0000      Y:     0.0000      Z:    -0.4910

  Electronic Dipole Moment: (a.u.)
     X:     0.0000      Y:     0.0000      Z:     0.7489

  Dipole Moment: (a.u.)
     X:     0.0000      Y:     0.0000      Z:     0.2579     Total:     0.2579

  Dipole Moment: (Debye)
     X:     0.0000      Y:     0.0000      Z:     0.6556     Total:     0.6556

*** tstop() called on l46 at Wed Jan 13 17:49:10 2021
Module time:
	user time   =      29.94 seconds =       0.50 minutes
	system time =       2.65 seconds =       0.04 minutes
	total time  =         33 seconds =       0.55 minutes
Total time:
	user time   =      29.94 seconds =       0.50 minutes
	system time =       2.65 seconds =       0.04 minutes
	total time  =         33 seconds =       0.55 minutes

*** tstart() called on l46
*** at Wed Jan 13 17:49:10 2021

	Wfn Parameters:
	--------------------
	Wavefunction         = CCSD
	Number of irreps     = 4
	Number of MOs        = 169
	Number of active MOs = 163
	AO-Basis             = NONE
	Semicanonical        = false
	Reference            = UHF
	Print Level          = 1

	IRREP	# MOs	# FZDC	# DOCC	# SOCC	# VIRT	# FZVR
	-----	-----	------	------	------	------	------
	 A1	   66	    4	    3	    0	    59	    0
	 A2	   23	    0	    0	    0	    23	    0
	 B1	   40	    1	    1	    1	    37	    0
	 B2	   40	    1	    1	    1	    37	    0
	Transforming integrals...
	IWL integrals will be deleted.
	(OO|OO)...
	Presorting SO-basis two-electron integrals.
	Sorting File: SO Ints (nn|nn) nbuckets = 1
	Transforming the one-electron integrals and constructing Fock matrices
	Starting AA/AB first half-transformation.
	Sorting AA/AB half-transformed integrals.
	Starting BB first half-transformation.
	Sorting BB half-transformed integrals.
	First half integral transformation complete.
	Starting AA second half-transformation.
	Starting AB second half-transformation.
	Starting BB second half-transformation.
	Two-electron integral transformation complete.
	(OO|OV)...
	Starting AA second half-transformation.
	Starting AB second half-transformation.
	Starting BB second half-transformation.
	Two-electron integral transformation complete.
	(OO|VV)...
	Starting AA second half-transformation.
	Starting AB second half-transformation.
	Starting BB second half-transformation.
	Two-electron integral transformation complete.
	(OV|OO)...
	Starting AA/AB first half-transformation.
	Sorting AA/AB half-transformed integrals.
	Starting BB first half-transformation.
	Sorting BB half-transformed integrals.
	First half integral transformation complete.
	Starting AA second half-transformation.
	Starting AB second half-transformation.
	Starting BB second half-transformation.
	Two-electron integral transformation complete.
	(OV|OV)...
	Starting AA second half-transformation.
	Starting AB second half-transformation.
	Starting BB second half-transformation.
	Two-electron integral transformation complete.
	(OV|VV)...
	Starting AA second half-transformation.
	Starting AB second half-transformation.
	Starting BB second half-transformation.
	Two-electron integral transformation complete.
	(VV|OO)...
	Starting AA/AB first half-transformation.
	Sorting AA/AB half-transformed integrals.
	Starting BB first half-transformation.
	Sorting BB half-transformed integrals.
	First half integral transformation complete.
	Starting AA second half-transformation.
	Starting AB second half-transformation.
	Starting BB second half-transformation.
	Two-electron integral transformation complete.
	(VV|OV)...
	Starting AA second half-transformation.
	Starting AB second half-transformation.
	Starting BB second half-transformation.
	Two-electron integral transformation complete.
	(VV|VV)...
	Starting AA second half-transformation.
	Starting AB second half-transformation.
	Starting BB second half-transformation.
	Two-electron integral transformation complete.
	Frozen core energy     =   -424.17265903602163

	Size of irrep 0 of <AB|CD> integrals:     10.864 (MW) /     86.909 (MB)
	Size of irrep 1 of <AB|CD> integrals:      7.431 (MW) /     59.449 (MB)
	Size of irrep 2 of <AB|CD> integrals:      9.205 (MW) /     73.641 (MB)
	Size of irrep 3 of <AB|CD> integrals:      9.205 (MW) /     73.641 (MB)
	Total:                                    36.705 (MW) /    293.640 (MB)

	Size of irrep 0 of <ab|cd> integrals:     11.357 (MW) /     90.855 (MB)
	Size of irrep 1 of <ab|cd> integrals:      7.846 (MW) /     62.765 (MB)
	Size of irrep 2 of <ab|cd> integrals:      9.709 (MW) /     77.676 (MB)
	Size of irrep 3 of <ab|cd> integrals:      9.709 (MW) /     77.676 (MB)
	Total:                                    38.621 (MW) /    308.971 (MB)

	Size of irrep 0 of <Ab|Cd> integrals:     46.540 (MW) /    372.317 (MB)
	Size of irrep 1 of <Ab|Cd> integrals:     30.537 (MW) /    244.293 (MB)
	Size of irrep 2 of <Ab|Cd> integrals:     37.822 (MW) /    302.580 (MB)
	Size of irrep 3 of <Ab|Cd> integrals:     37.822 (MW) /    302.580 (MB)
	Total:                                   152.721 (MW) /   1221.771 (MB)

	Size of irrep 0 of <IA|BC> integrals:      2.193 (MW) /     17.545 (MB)
	Size of irrep 1 of <IA|BC> integrals:      1.183 (MW) /      9.465 (MB)
	Size of irrep 2 of <IA|BC> integrals:      1.669 (MW) /     13.350 (MB)
	Size of irrep 3 of <IA|BC> integrals:      1.669 (MW) /     13.350 (MB)
	Total:                                     6.714 (MW) /     53.709 (MB)

	Size of irrep 0 of <ia|bc> integrals:      1.745 (MW) /     13.962 (MB)
	Size of irrep 1 of <ia|bc> integrals:      0.812 (MW) /      6.498 (MB)
	Size of irrep 2 of <ia|bc> integrals:      1.221 (MW) /      9.772 (MB)
	Size of irrep 3 of <ia|bc> integrals:      1.221 (MW) /      9.772 (MB)
	Total:                                     5.000 (MW) /     40.003 (MB)

	Size of irrep 0 of <Ia|Bc> integrals:      2.244 (MW) /     17.956 (MB)
	Size of irrep 1 of <Ia|Bc> integrals:      1.221 (MW) /      9.770 (MB)
	Size of irrep 2 of <Ia|Bc> integrals:      1.710 (MW) /     13.678 (MB)
	Size of irrep 3 of <Ia|Bc> integrals:      1.710 (MW) /     13.678 (MB)
	Total:                                     6.885 (MW) /     55.081 (MB)

	Size of irrep 0 of <iA|bC> integrals:      1.712 (MW) /     13.699 (MB)
	Size of irrep 1 of <iA|bC> integrals:      0.790 (MW) /      6.322 (MB)
	Size of irrep 2 of <iA|bC> integrals:      1.187 (MW) /      9.496 (MB)
	Size of irrep 3 of <iA|bC> integrals:      1.187 (MW) /      9.496 (MB)
	Total:                                     4.876 (MW) /     39.012 (MB)

	Size of irrep 0 of tIjAb amplitudes:       0.089 (MW) /      0.709 (MB)
	Size of irrep 1 of tIjAb amplitudes:       0.022 (MW) /      0.177 (MB)
	Size of irrep 2 of tIjAb amplitudes:       0.055 (MW) /      0.443 (MB)
	Size of irrep 3 of tIjAb amplitudes:       0.055 (MW) /      0.443 (MB)
	Total:                                     0.221 (MW) /      1.772 (MB)

	Nuclear Rep. energy          =     40.93496666323469
	SCF energy                   =   -415.66187769401847
	One-electron energy          =    -60.11630277840409
	Two-electron (AA) energy     =      7.65222822336184
	Two-electron (BB) energy     =      4.12998387387585
	Two-electron (AB) energy     =     15.90990535993427
	Two-electron energy          =     27.69211745717196
	Reference energy             =   -415.66187769401904

*** tstop() called on l46 at Wed Jan 13 17:50:07 2021
Module time:
	user time   =      26.99 seconds =       0.45 minutes
	system time =      28.45 seconds =       0.47 minutes
	total time  =         57 seconds =       0.95 minutes
Total time:
	user time   =      56.93 seconds =       0.95 minutes
	system time =      31.10 seconds =       0.52 minutes
	total time  =         90 seconds =       1.50 minutes

*** tstart() called on l46
*** at Wed Jan 13 17:50:07 2021

            **************************
            *                        *
            *        CCENERGY        *
            *                        *
            **************************

    Nuclear Rep. energy (wfn)     =   40.934966663234690
    SCF energy          (wfn)     = -415.661877694018472
    Reference energy    (file100) = -415.661877694019040

    Input parameters:
    -----------------
    Wave function   =     CCSD
    Reference wfn   =     UHF
    Brueckner       =     No
    Memory (Mbytes) =     250000.0
    Maxiter         =     50
    R_Convergence   =     1.0e-07
    E_Convergence   =     1.0e-06
    Restart         =     Yes
    DIIS            =     Yes
    AO Basis        =     NONE
    ABCD            =     NEW
    Cache Level     =     2
    Cache Type      =     LRU
    Print Level     =     1
    Num. of threads =     1
    # Amps to Print =     10
    Print MP2 Amps? =     No
    Analyze T2 Amps =     No
    Print Pair Ener =     No
    Local CC        =     No
    SCS-MP2         =     False
    SCSN-MP2        =     False
    SCS-CCSD        =     False

MP2 correlation energy -0.3983974404246616
                Solving CC Amplitude Equations
                ------------------------------
  Iter             Energy              RMS        T1Diag      D1Diag    New D1Diag    D2Diag
  ----     ---------------------    ---------   ----------  ----------  ----------   --------
     0        -0.398397440424677    0.000e+00    0.000000    0.000000    0.000000    0.000000
     1        -0.386392785407982    1.086e-01    0.024725    0.000000    0.000000    0.000000
     2        -0.399169839290461    4.219e-02    0.023466    0.000000    0.000000    0.000000
     3        -0.403244271153883    2.353e-02    0.029800    0.000000    0.000000    0.000000
     4        -0.403131853700247    8.290e-03    0.032786    0.000000    0.000000    0.000000
     5        -0.403026789949021    4.215e-03    0.034020    0.000000    0.000000    0.000000
     6        -0.403092096361906    1.640e-03    0.034543    0.000000    0.000000    0.000000
     7        -0.403083144705219    8.113e-04    0.034652    0.000000    0.000000    0.000000
     8        -0.403080161640631    2.900e-04    0.034669    0.000000    0.000000    0.000000
     9        -0.403088941280473    1.610e-04    0.034684    0.000000    0.000000    0.000000
    10        -0.403084620209461    6.963e-05    0.034689    0.000000    0.000000    0.000000
    11        -0.403083874308277    2.916e-05    0.034686    0.000000    0.000000    0.000000
    12        -0.403083822335880    1.468e-05    0.034688    0.000000    0.000000    0.000000
    13        -0.403083480739322    5.547e-06    0.034687    0.000000    0.000000    0.000000
    14        -0.403083543790387    2.596e-06    0.034688    0.000000    0.000000    0.000000
    15        -0.403083582054373    1.015e-06    0.034687    0.000000    0.000000    0.000000
    16        -0.403083576622748    5.084e-07    0.034687    0.000000    0.000000    0.000000

      * MP2 total energy                      = -416.060275134443714
      * CCSD total energy                     = -416.064961272286951
*** Psi4 exiting successfully. Buy a developer a beer!
