                               Psi4 1.2a1.dev939

  ==> Input File <==

--------------------------------------------------------------------------
# Any line starting with the # character is a comment line
memory 250000 mb
molecule molecule{
-1 3
P          0.0000000000        0.0000000000        0.5283745064
O          0.0000000000        0.0000000000       -1.0228974307
}

set {
  reference uhf
  basis aug-cc-pv(5+d)z
  scf_type OUT_OF_CORE
  freeze_core true
  DOCC [     7,    0,    2,    2 ]
  SOCC [     0,    0,    1,    1 ]

}

energy('ccsd')
--------------------------------------------------------------------------

    Molecular point group: c2v

    Geometry (in Angstrom), charge = -1, multiplicity = 3:

       Center              X                  Y                   Z               Mass
    ------------   -----------------  -----------------  -----------------  -----------------
           P          0.000000000000     0.000000000000     0.528276804190    30.973761629000
           O          0.000000000000     0.000000000000    -1.022995132910    15.994914619560

  Charge       = -1
  Multiplicity = 3
  Basis Set: AUG-CC-PV(5+D)Z
    Blend: AUG-CC-PV(5+D)Z

    Orbital Energies (a.u.)
    -----------------------

    Alpha Occupied:

       1A1   -79.733091     2A1   -20.308490     3A1    -7.269744
       1B2    -5.170289     1B1    -5.170289     4A1    -5.158336
       5A1    -1.078266     6A1    -0.519594     2B1    -0.320463
       2B2    -0.320463     7A1    -0.288766     3B1    -0.075497
       3B2    -0.075497

    Alpha Virtual:

       8A1     0.174440     9A1     0.179995     4B1     0.182018
       4B2     0.182018    10A1     0.265856     5B2     0.272984
       5B1     0.272984     1A2     0.305311    11A1     0.305311
      12A1     0.307567     6B1     0.349927     6B2     0.349927
      13A1     0.377541    14A1     0.387929     7B1     0.455678
       7B2     0.455678     8B1     0.542961     8B2     0.542961
       2A2     0.543187    15A1     0.543187    16A1     0.545943
       9B1     0.588017     9B2     0.588017    17A1     0.591437
       3A2     0.592406    18A1     0.592406    19A1     0.657979
      10B2     0.705874    10B1     0.705874    11B2     0.726343
      11B1     0.726343     4A2     0.732225    20A1     0.732225
      21A1     0.741162    22A1     0.774435    12B1     0.872071
      12B2     0.872071    23A1     1.032282     5A2     1.105318
      24A1     1.105318    13B2     1.108594    13B1     1.108594
      25A1     1.142985     6A2     1.180503    26A1     1.180503
       7A2     1.188112    27A1     1.188112    14B1     1.192551
      14B2     1.192551    15B2     1.214344    15B1     1.214344
      28A1     1.214415    16B1     1.218322    16B2     1.218322
       8A2     1.244721    29A1     1.244721    17B2     1.319740
      17B1     1.319740    30A1     1.381706    18B2     1.413522
      18B1     1.413522    31A1     1.460128     9A2     1.475020
      32A1     1.475020    19B1     1.492085    19B2     1.492085
      33A1     1.527263    20B1     1.702619    20B2     1.702619
      34A1     1.711367    35A1     1.876078    21B2     1.879040
      21B1     1.879040    10A2     1.914148    36A1     1.914148
      37A1     2.172495    22B1     2.365843    22B2     2.365843
      38A1     2.378730    11A2     2.378730    23B1     2.389095
      23B2     2.389095    39A1     2.404179    12A2     2.404179
      24B2     2.416143    24B1     2.416143    40A1     2.509262
      25B1     2.513398    25B2     2.513398    26B2     2.529778
      26B1     2.529778    13A2     2.544878    41A1     2.544878
      14A2     2.554089    42A1     2.554089    43A1     2.569710
      27B1     2.588029    27B2     2.588029    28B1     2.606586
      28B2     2.606586    15A2     2.617140    44A1     2.617140
      45A1     2.774156    29B1     2.826770    29B2     2.826770
      16A2     2.926364    46A1     2.926364    47A1     2.948972
      17A2     3.066110    48A1     3.066110    30B1     3.157923
      30B2     3.157923    31B2     3.274244    31B1     3.274244
      49A1     3.315856    50A1     3.423875    18A2     3.423875
      32B1     3.604330    32B2     3.604330    33B2     3.625214
      33B1     3.625214    51A1     3.744984    34B1     3.758664
      34B2     3.758664    19A2     3.780323    52A1     3.780323
      53A1     3.828080    54A1     3.922631    35B1     4.271673
      35B2     4.271673    20A2     4.453725    55A1     4.453725
      56A1     4.546322    36B2     4.842786    36B1     4.842786
      57A1     4.911956    21A2     4.911956    37B2     4.912288
      37B1     4.912288    58A1     5.061426    38B1     5.065547
      38B2     5.065547    59A1     5.134663    22A2     5.180689
      60A1     5.180689    39B1     5.401696    39B2     5.401696
      40B2     5.436999    40B1     5.436999    61A1     5.447757
      23A2     5.447757    41B1     5.450111    41B2     5.450111
      24A2     5.535959    62A1     5.535959    25A2     5.537391
      63A1     5.537391    64A1     5.545317    42B1     5.594060
      42B2     5.594060    65A1     5.780407    43B2     5.795628
      43B1     5.795628    44B1     5.951953    44B2     5.951953
      26A2     5.954062    66A1     5.954062    67A1     6.025575
      45B2     6.481412    45B1     6.481412    46B1     6.520625
      46B2     6.520625    27A2     6.604553    68A1     6.604553
      69A1     6.711926    47B2     7.186077    47B1     7.186077
      28A2     7.440014    70A1     7.440014    71A1     7.520935
      72A1     7.617126    29A2     7.617126    48B1     7.721674
      48B2     7.721674    49B2     7.734724    49B1     7.734724
      50B2     7.836704    50B1     7.836704    73A1     7.925843
      74A1     7.973166    30A2     7.973166    75A1     8.169326
      51B2     8.250180    51B1     8.250180    31A2     8.785227
      76A1     8.785227    32A2     9.017922    77A1     9.017922
      78A1     9.091577    52B1     9.230011    52B2     9.230011
      53B1    10.090551    53B2    10.090551    79A1    10.425393
      80A1    12.441471    33A2    13.408353    81A1    13.408353
      54B2    13.727565    54B1    13.727565    82A1    14.062043
      55B1    16.445461    55B2    16.445461    56B2    16.537551
      56B1    16.537551    83A1    16.585002    34A2    16.585002
      57B2    16.797025    57B1    16.797025    84A1    17.032929
      58B1    17.067541    58B2    17.067541    85A1    17.071351
      35A2    17.071351    86A1    17.726891    59B1    18.062713
      59B2    18.062713    36A2    19.418746    87A1    19.418746
      88A1    19.427004    60B2    19.548535    60B1    19.548535
      61B2    19.558305    61B1    19.558305    37A2    19.663010
      89A1    19.663010    62B1    19.827570    62B2    19.827570
      90A1    20.006692    38A2    20.006692    91A1    20.254358
      63B1    20.595392    63B2    20.595392    92A1    21.622463
      39A2    22.565087    93A1    22.565087    64B1    23.146052
      64B2    23.146052    94A1    23.596713    95A1    54.074704
      96A1    63.285389

    Beta Occupied:

       1A1   -79.723921     2A1   -20.282533     3A1    -7.260237
       4A1    -5.156142     1B1    -5.145324     1B2    -5.145324
       5A1    -1.008781     6A1    -0.415306     7A1    -0.218094
       2B1    -0.205549     2B2    -0.205549

    Beta Virtual:

       3B1     0.176373     3B2     0.176373     8A1     0.177215
       9A1     0.181709    10A1     0.270888     4B1     0.273265
       4B2     0.273265     5B2     0.300610     5B1     0.300610
      11A1     0.312879     1A2     0.319930    12A1     0.319930
       6B1     0.368523     6B2     0.368523    13A1     0.380355
      14A1     0.403394     7B1     0.496184     7B2     0.496184
       2A2     0.551101    15A1     0.551101     8B1     0.552864
       8B2     0.552864    16A1     0.560706    17A1     0.594948
       9B1     0.600299     9B2     0.600299     3A2     0.644459
      18A1     0.644459    19A1     0.673250    10B2     0.715750
      10B1     0.715750     4A2     0.745971    20A1     0.745971
      21A1     0.753506    11B2     0.770524    11B1     0.770524
      22A1     0.781418    12B1     0.884835    12B2     0.884835
      23A1     1.045419    13B2     1.115217    13B1     1.115217
       5A2     1.118724    24A1     1.118724    25A1     1.145538
       6A2     1.200914    26A1     1.200914     7A2     1.214896
      27A1     1.214896    14B2     1.223660    14B1     1.223660
      28A1     1.224640    15B1     1.224963    15B2     1.224963
      16B1     1.254071    16B2     1.254071     8A2     1.273664
      29A1     1.273664    17B1     1.342281    17B2     1.342281
      30A1     1.397717    18B2     1.416156    18B1     1.416156
      31A1     1.468424     9A2     1.479463    32A1     1.479463
      19B2     1.501206    19B1     1.501206    33A1     1.537068
      34A1     1.722193    20B1     1.723496    20B2     1.723496
      35A1     1.890705    21B2     1.896914    21B1     1.896914
      10A2     1.928612    36A1     1.928612    37A1     2.187738
      22B1     2.388607    22B2     2.388607    11A2     2.388765
      38A1     2.388765    23B1     2.407073    23B2     2.407073
      12A2     2.425443    39A1     2.425443    24B2     2.452262
      24B1     2.452262    40A1     2.517872    25B1     2.526210
      25B2     2.526210    26B2     2.544255    26B1     2.544255
      13A2     2.570253    41A1     2.570253    42A1     2.580991
      14A2     2.584246    43A1     2.584246    27B2     2.605145
      27B1     2.605145    28B1     2.622444    28B2     2.622444
      15A2     2.630591    44A1     2.630591    45A1     2.783842
      29B2     2.842794    29B1     2.842794    16A2     2.937651
      46A1     2.937651    47A1     2.956896    17A2     3.067908
      48A1     3.067908    30B1     3.165740    30B2     3.165740
      31B2     3.281646    31B1     3.281646    49A1     3.318202
      50A1     3.430875    18A2     3.430875    32B2     3.611377
      32B1     3.611377    33B2     3.629897    33B1     3.629897
      51A1     3.755731    34B1     3.781533    34B2     3.781533
      19A2     3.811167    52A1     3.811167    53A1     3.846263
      54A1     3.932452    35B1     4.291262    35B2     4.291262
      20A2     4.466940    55A1     4.466940    56A1     4.558781
      36B2     4.866785    36B1     4.866785    21A2     4.922885
      57A1     4.922885    37B2     4.925468    37B1     4.925468
      38B1     5.074995    38B2     5.074995    58A1     5.078102
      59A1     5.138711    22A2     5.196513    60A1     5.196513
      39B2     5.421608    39B1     5.421608    40B2     5.445071
      40B1     5.445071    61A1     5.463827    23A2     5.463827
      41B1     5.474541    41B2     5.474541    24A2     5.549266
      62A1     5.549266    63A1     5.550410    25A2     5.563225
      64A1     5.563225    42B2     5.614164    42B1     5.614164
      65A1     5.791568    43B2     5.811911    43B1     5.811911
      26A2     5.964519    66A1     5.964519    44B1     5.965260
      44B2     5.965260    67A1     6.037352    45B2     6.483670
      45B1     6.483670    46B1     6.532437    46B2     6.532437
      68A1     6.606628    27A2     6.606628    69A1     6.719789
      47B1     7.190393    47B2     7.190393    28A2     7.450878
      70A1     7.450878    71A1     7.533860    72A1     7.624742
      29A2     7.624742    48B1     7.732096    48B2     7.732096
      49B2     7.739332    49B1     7.739332    50B2     7.859560
      50B1     7.859560    73A1     7.930126    74A1     7.983605
      30A2     7.983605    75A1     8.177036    51B2     8.261113
      51B1     8.261113    31A2     8.798792    76A1     8.798792
      32A2     9.055995    77A1     9.055995    78A1     9.102589
      52B1     9.244288    52B2     9.244288    53B1    10.107677
      53B2    10.107677    79A1    10.436887    80A1    12.464238
      33A2    13.421534    81A1    13.421534    54B2    13.734854
      54B1    13.734854    82A1    14.067314    55B1    16.472495
      55B2    16.472495    56B2    16.550528    56B1    16.550528
      83A1    16.595606    34A2    16.595606    57B2    16.805848
      57B1    16.805848    84A1    17.039250    58B1    17.074716
      58B2    17.074716    85A1    17.078742    35A2    17.078742
      86A1    17.738658    59B1    18.078981    59B2    18.078981
      87A1    19.436184    36A2    19.440564    88A1    19.440564
      60B2    19.575403    60B1    19.575403    61B2    19.577536
      61B1    19.577536    89A1    19.677404    37A2    19.677404
      62B1    19.840278    62B2    19.840278    90A1    20.027776
      38A2    20.027776    91A1    20.267390    63B1    20.611178
      63B2    20.611178    92A1    21.628179    39A2    22.593564
      93A1    22.593564    64B1    23.163993    64B2    23.163993
      94A1    23.609880    95A1    54.080890    96A1    63.295854

    Final Occupation by Irrep:
             A1    A2    B1    B2
    DOCC [     7,    0,    2,    2 ]
    SOCC [     0,    0,    1,    1 ]

  Energy converged.

  @UHF Final Energy:  -415.66370490408292

   => Energetics <=

    Nuclear Repulsion Energy =             40.9349666632346896
    One-Electron Energy =                -662.9417986734988517
    Two-Electron Energy =                 206.3431271061812424
    Total Energy =                       -415.6637049040829197

  UHF NO Occupations:
  HONO-2 :    7 A1 1.9906872
  HONO-1 :    3 B1 1.0000000
  HONO-0 :    3 B2 1.0000000
  LUNO+0 :    8 A1 0.0093128
  LUNO+1 :    4 B2 0.0064245
  LUNO+2 :    4 B1 0.0064245
  LUNO+3 :    9 A1 0.0005483

Properties will be evaluated at   0.000000,   0.000000,   0.000000 Bohr

Properties computed using the SCF density matrix

  Nuclear Dipole Moment: (a.u.)
     X:     0.0000      Y:     0.0000      Z:    -0.4910

  Electronic Dipole Moment: (a.u.)
     X:     0.0000      Y:     0.0000      Z:     0.7461

  Dipole Moment: (a.u.)
     X:     0.0000      Y:     0.0000      Z:     0.2552     Total:     0.2552

  Dipole Moment: (Debye)
     X:     0.0000      Y:     0.0000      Z:     0.6485     Total:     0.6485

*** tstop() called on l46 at Wed Jan 13 17:55:27 2021
Module time:
	user time   =     188.97 seconds =       3.15 minutes
	system time =      17.71 seconds =       0.30 minutes
	total time  =        208 seconds =       3.47 minutes
Total time:
	user time   =     188.97 seconds =       3.15 minutes
	system time =      17.71 seconds =       0.30 minutes
	total time  =        208 seconds =       3.47 minutes

*** tstart() called on l46
*** at Wed Jan 13 17:55:27 2021

	Wfn Parameters:
	--------------------
	Wavefunction         = CCSD
	Number of irreps     = 4
	Number of MOs        = 263
	Number of active MOs = 257
	AO-Basis             = NONE
	Semicanonical        = false
	Reference            = UHF
	Print Level          = 1

	IRREP	# MOs	# FZDC	# DOCC	# SOCC	# VIRT	# FZVR
	-----	-----	------	------	------	------	------
	 A1	   96	    4	    3	    0	    89	    0
	 A2	   39	    0	    0	    0	    39	    0
	 B1	   64	    1	    1	    1	    61	    0
	 B2	   64	    1	    1	    1	    61	    0
	Transforming integrals...
	IWL integrals will be deleted.
	(OO|OO)...
	Presorting SO-basis two-electron integrals.
	Sorting File: SO Ints (nn|nn) nbuckets = 1
	Transforming the one-electron integrals and constructing Fock matrices
	Starting AA/AB first half-transformation.
	Sorting AA/AB half-transformed integrals.
	Starting BB first half-transformation.
	Sorting BB half-transformed integrals.
	First half integral transformation complete.
	Starting AA second half-transformation.
	Starting AB second half-transformation.
	Starting BB second half-transformation.
	Two-electron integral transformation complete.
	(OO|OV)...
	Starting AA second half-transformation.
	Starting AB second half-transformation.
	Starting BB second half-transformation.
	Two-electron integral transformation complete.
	(OO|VV)...
	Starting AA second half-transformation.
	Starting AB second half-transformation.
	Starting BB second half-transformation.
	Two-electron integral transformation complete.
	(OV|OO)...
	Starting AA/AB first half-transformation.
	Sorting AA/AB half-transformed integrals.
	Starting BB first half-transformation.
	Sorting BB half-transformed integrals.
	First half integral transformation complete.
	Starting AA second half-transformation.
	Starting AB second half-transformation.
	Starting BB second half-transformation.
	Two-electron integral transformation complete.
	(OV|OV)...
	Starting AA second half-transformation.
	Starting AB second half-transformation.
	Starting BB second half-transformation.
	Two-electron integral transformation complete.
	(OV|VV)...
	Starting AA second half-transformation.
	Starting AB second half-transformation.
	Starting BB second half-transformation.
	Two-electron integral transformation complete.
	(VV|OO)...
	Starting AA/AB first half-transformation.
	Sorting AA/AB half-transformed integrals.
	Starting BB first half-transformation.
	Sorting BB half-transformed integrals.
	First half integral transformation complete.
	Starting AA second half-transformation.
	Starting AB second half-transformation.
	Starting BB second half-transformation.
	Two-electron integral transformation complete.
	(VV|OV)...
	Starting AA second half-transformation.
	Starting AB second half-transformation.
	Starting BB second half-transformation.
	Two-electron integral transformation complete.
	(VV|VV)...
	Starting AA second half-transformation.
	Starting AB second half-transformation.
	Starting BB second half-transformation.
	Two-electron integral transformation complete.
	Frozen core energy     =   -424.17317051211023

	Size of irrep 0 of <AB|CD> integrals:     69.172 (MW) /    553.380 (MB)
	Size of irrep 1 of <AB|CD> integrals:     51.725 (MW) /    413.799 (MB)
	Size of irrep 2 of <AB|CD> integrals:     60.965 (MW) /    487.719 (MB)
	Size of irrep 3 of <AB|CD> integrals:     60.965 (MW) /    487.719 (MB)
	Total:                                   242.827 (MW) /   1942.617 (MB)

	Size of irrep 0 of <ab|cd> integrals:     71.217 (MW) /    569.734 (MB)
	Size of irrep 1 of <ab|cd> integrals:     53.509 (MW) /    428.074 (MB)
	Size of irrep 2 of <ab|cd> integrals:     62.980 (MW) /    503.841 (MB)
	Size of irrep 3 of <ab|cd> integrals:     62.980 (MW) /    503.841 (MB)
	Total:                                   250.686 (MW) /   2005.489 (MB)

	Size of irrep 0 of <Ab|Cd> integrals:    289.204 (MW) /   2313.632 (MB)
	Size of irrep 1 of <Ab|Cd> integrals:    210.424 (MW) /   1683.392 (MB)
	Size of irrep 2 of <Ab|Cd> integrals:    247.874 (MW) /   1982.988 (MB)
	Size of irrep 3 of <Ab|Cd> integrals:    247.874 (MW) /   1982.988 (MB)
	Total:                                   995.375 (MW) /   7963.001 (MB)

	Size of irrep 0 of <IA|BC> integrals:      8.628 (MW) /     69.022 (MB)
	Size of irrep 1 of <IA|BC> integrals:      5.193 (MW) /     41.541 (MB)
	Size of irrep 2 of <IA|BC> integrals:      6.855 (MW) /     54.843 (MB)
	Size of irrep 3 of <IA|BC> integrals:      6.855 (MW) /     54.843 (MB)
	Total:                                    27.531 (MW) /    220.250 (MB)

	Size of irrep 0 of <ia|bc> integrals:      6.698 (MW) /     53.583 (MB)
	Size of irrep 1 of <ia|bc> integrals:      3.526 (MW) /     28.207 (MB)
	Size of irrep 2 of <ia|bc> integrals:      4.984 (MW) /     39.870 (MB)
	Size of irrep 3 of <ia|bc> integrals:      4.984 (MW) /     39.870 (MB)
	Total:                                    20.191 (MW) /    161.530 (MB)

	Size of irrep 0 of <Ia|Bc> integrals:      8.758 (MW) /     70.065 (MB)
	Size of irrep 1 of <Ia|Bc> integrals:      5.295 (MW) /     42.358 (MB)
	Size of irrep 2 of <Ia|Bc> integrals:      6.959 (MW) /     55.671 (MB)
	Size of irrep 3 of <Ia|Bc> integrals:      6.959 (MW) /     55.671 (MB)
	Total:                                    27.970 (MW) /    223.764 (MB)

	Size of irrep 0 of <iA|bC> integrals:      6.615 (MW) /     52.923 (MB)
	Size of irrep 1 of <iA|bC> integrals:      3.467 (MW) /     27.735 (MB)
	Size of irrep 2 of <iA|bC> integrals:      4.896 (MW) /     39.171 (MB)
	Size of irrep 3 of <iA|bC> integrals:      4.896 (MW) /     39.171 (MB)
	Total:                                    19.875 (MW) /    159.000 (MB)

	Size of irrep 0 of tIjAb amplitudes:       0.221 (MW) /      1.769 (MB)
	Size of irrep 1 of tIjAb amplitudes:       0.058 (MW) /      0.464 (MB)
	Size of irrep 2 of tIjAb amplitudes:       0.142 (MW) /      1.134 (MB)
	Size of irrep 3 of tIjAb amplitudes:       0.142 (MW) /      1.134 (MB)
	Total:                                     0.562 (MW) /      4.500 (MB)

	Nuclear Rep. energy          =     40.93496666323469
	SCF energy                   =   -415.66370490408292
	One-electron energy          =    -60.11917658831485
	Two-electron (AA) energy     =      7.65212091688971
	Two-electron (BB) energy     =      4.13063611449610
	Two-electron (AB) energy     =     15.91091850171881
	Two-electron energy          =     27.69367553310462
	Reference energy             =   -415.66370490408576

*** tstop() called on l46 at Wed Jan 13 18:01:27 2021
Module time:
	user time   =     177.98 seconds =       2.97 minutes
	system time =     180.33 seconds =       3.01 minutes
	total time  =        360 seconds =       6.00 minutes
Total time:
	user time   =     366.95 seconds =       6.12 minutes
	system time =     198.04 seconds =       3.30 minutes

      * MP2 total energy                      = -416.072876513655331
      * CCSD total energy                     = -416.074281843283643
*** Psi4 exiting successfully. Buy a developer a beer!
