                               Psi4 1.2a1.dev938

  ==> Input File <==

--------------------------------------------------------------------------
# Any line starting with the # character is a comment line
memory 250000 mb
molecule molecule{
-1 3
P          0.0000000000        0.0000000000        0.5283745064
O          0.0000000000        0.0000000000       -1.0228974307
}

set {
  reference uhf
  basis aug-cc-pv(t+d)z
  scf_type OUT_OF_CORE
  freeze_core true
}

energy('ccsd')
--------------------------------------------------------------------------

    Molecular point group: c2v

    Geometry (in Angstrom), charge = -1, multiplicity = 3:

       Center              X                  Y                   Z               Mass
    ------------   -----------------  -----------------  -----------------  -----------------
           P          0.000000000000     0.000000000000     0.528276804190    30.973761629000
           O          0.000000000000     0.000000000000    -1.022995132910    15.994914619560

  Charge       = -1
  Multiplicity = 3
  Basis Set: AUG-CC-PV(T+D)Z
    Blend: AUG-CC-PV(T+D)Z

    Orbital Energies (a.u.)
    -----------------------

    Alpha Occupied:

       1A1   -79.734035     2A1   -20.312216     3A1    -7.270715
       1B2    -5.170514     1B1    -5.170514     4A1    -5.159061
       5A1    -1.079439     6A1    -0.519799     2B1    -0.320404
       2B2    -0.320404     7A1    -0.288639     3B2    -0.075279
       3B1    -0.075278

    Alpha Virtual:

       8A1     0.202363     4B2     0.221606     4B1     0.221606
       9A1     0.222370    10A1     0.334526     5B1     0.361843
       5B2     0.361843    11A1     0.379467    12A1     0.380213
       1A2     0.380213     6B1     0.469681     6B2     0.469681
      13A1     0.504162    14A1     0.555552     7B2     0.700049
       7B1     0.700049    15A1     0.754521    16A1     0.774375
       2A2     0.774375     3A2     0.843457    17A1     0.843457
       8B2     0.845917     8B1     0.845917     9B1     0.851569
       9B2     0.851569    18A1     0.863527    19A1     0.969571
      10B2     1.007691    10B1     1.007691    11B2     1.086483
      11B1     1.086483     4A2     1.103866    20A1     1.103866
      21A1     1.196055    22A1     1.261732    12B1     1.547251
      12B2     1.547251    23A1     1.605512    24A1     1.821263
       5A2     1.821263    13B2     1.874111    13B1     1.874111
      25A1     1.956229    26A1     2.029812    27A1     2.032740
       6A2     2.032740    14B1     2.096983    14B2     2.096983
      15B2     2.124813    15B1     2.124813    16B1     2.354696
      16B2     2.354696    28A1     2.512953     7A2     2.559705
      29A1     2.559705    17B2     2.651430    17B1     2.651430
       8A2     2.680256    30A1     2.680256    31A1     2.699581
      18B1     2.731626    18B2     2.731626    32A1     3.089930
      19B1     3.273701    19B2     3.273701    33A1     3.797513
      20B1     4.700110    20B2     4.700110    34A1     4.748839
      35A1     5.465409    36A1     6.441735     9A2     6.441735
      21B1     6.598315    21B2     6.598315    22B1     6.770635
      22B2     6.770635    10A2     6.871959    37A1     6.871959
      38A1     6.921581    23B1     7.052646    23B2     7.052646
      11A2     7.344678    39A1     7.344678    40A1     7.421552
      24B1     7.573090    24B2     7.573090    41A1     8.128568
      42A1    11.782506

    Beta Occupied:

       1A1   -79.725591     2A1   -20.286184     3A1    -7.261120
       4A1    -5.156956     1B1    -5.146267     1B2    -5.146266
       5A1    -1.009931     6A1    -0.415603     7A1    -0.217955
       2B2    -0.205353     2B1    -0.205353

    Beta Virtual:

       8A1     0.203696     3B2     0.206987     3B1     0.206987
       9A1     0.231111     4B1     0.328668     4B2     0.328668
      10A1     0.342191     5B2     0.369178     5B1     0.369178
      11A1     0.391283     1A2     0.412853    12A1     0.412853
       6B2     0.498941     6B1     0.498941    13A1     0.507305
      14A1     0.582165     7B1     0.746628     7B2     0.746628
      15A1     0.771226     2A2     0.830924    16A1     0.830924
      17A1     0.864196     3A2     0.875859    18A1     0.875859
       8B1     0.878620     8B2     0.878620     9B1     0.879687
       9B2     0.879687    19A1     0.986170    10B2     1.037194
      10B1     1.037194    11B2     1.112121    11B1     1.112121
      20A1     1.115702     4A2     1.115702    21A1     1.211277
      22A1     1.286540    12B2     1.565256    12B1     1.565256
      23A1     1.627228     5A2     1.857885    24A1     1.857885
      13B1     1.898107    13B2     1.898107    25A1     1.961442
      26A1     2.035946     6A2     2.054605    27A1     2.054605
      14B1     2.144947    14B2     2.144947    15B1     2.150521
      15B2     2.150521    16B1     2.358947    16B2     2.358947
      28A1     2.528097    29A1     2.596393     7A2     2.596393
      17B1     2.684814    17B2     2.684814    30A1     2.690903
       8A2     2.690903    31A1     2.714237    18B1     2.748869
      18B2     2.748869    32A1     3.106516    19B1     3.285685
      19B2     3.285685    33A1     3.806474    20B2     4.747511
      20B1     4.747511    34A1     4.766123    35A1     5.479207
       9A2     6.453213    36A1     6.453213    21B1     6.606589
      21B2     6.606589    22B1     6.798580    22B2     6.798580
      37A1     6.892007    10A2     6.892007    38A1     6.935262
      23B1     7.067883    23B2     7.067883    39A1     7.398966
      11A2     7.398966    40A1     7.438295    24B2     7.605228
      24B1     7.605228    41A1     8.141642    42A1    11.806113

    Final Occupation by Irrep:
             A1    A2    B1    B2
    DOCC [     7,    0,    2,    2 ]
    SOCC [     0,    0,    1,    1 ]

  Energy converged.

  @UHF Final Energy:  -415.65414500650655

   => Energetics <=

    Nuclear Repulsion Energy =             40.9349666632346967
    One-Electron Energy =                -662.9053457842896933
    Two-Electron Energy =                 206.3162341145484220
    PCM Polarization Energy =               0.0000000000000000
    Total Energy =                       -415.6541450065065533

    Alert: EFP and PCM quantities not currently incorporated into SCF psivars.
  UHF NO Occupations:
  HONO-2 :    7 A1 1.9907757
  HONO-1 :    3 B2 1.0000000
  HONO-0 :    3 B1 1.0000000
  LUNO+0 :    8 A1 0.0092243
  LUNO+1 :    4 B1 0.0064093
  LUNO+2 :    4 B2 0.0064093
  LUNO+3 :    9 A1 0.0005408

Properties will be evaluated at   0.000000,   0.000000,   0.000000 Bohr

Properties computed using the SCF density matrix

  Nuclear Dipole Moment: (a.u.)
     X:     0.0000      Y:     0.0000      Z:    -0.4910

  Electronic Dipole Moment: (a.u.)
     X:     0.0000      Y:     0.0000      Z:     0.7568

  Dipole Moment: (a.u.)
     X:     0.0000      Y:     0.0000      Z:     0.2658     Total:     0.2658

  Dipole Moment: (Debye)
     X:     0.0000      Y:     0.0000      Z:     0.6757     Total:     0.6757

*** tstop() called on cqc05 at Thu Aug 20 20:05:29 2020
Module time:
	user time   =       3.92 seconds =       0.07 minutes
	system time =       0.21 seconds =       0.00 minutes
	total time  =          4 seconds =       0.07 minutes
Total time:
	user time   =       3.92 seconds =       0.07 minutes
	system time =       0.21 seconds =       0.00 minutes
	total time  =          4 seconds =       0.07 minutes

*** tstart() called on cqc05
*** at Thu Aug 20 20:05:29 2020

	Wfn Parameters:
	--------------------
	Wavefunction         = CCSD
	Number of irreps     = 4
	Number of MOs        = 101
	Number of active MOs = 95
	AO-Basis             = NONE
	Semicanonical        = false
	Reference            = UHF
	Print Level          = 1

	IRREP	# MOs	# FZDC	# DOCC	# SOCC	# VIRT	# FZVR
	-----	-----	------	------	------	------	------
	 A1	   42	    4	    3	    0	    35	    0
	 A2	   11	    0	    0	    0	    11	    0
	 B1	   24	    1	    1	    1	    21	    0
	 B2	   24	    1	    1	    1	    21	    0
	Transforming integrals...
	IWL integrals will be deleted.
	(OO|OO)...
	Presorting SO-basis two-electron integrals.
	Sorting File: SO Ints (nn|nn) nbuckets = 1
	Transforming the one-electron integrals and constructing Fock matrices
	Starting AA/AB first half-transformation.
	Sorting AA/AB half-transformed integrals.
	Starting BB first half-transformation.
	Sorting BB half-transformed integrals.
	First half integral transformation complete.
	Starting AA second half-transformation.
	Starting AB second half-transformation.
	Starting BB second half-transformation.
	Two-electron integral transformation complete.
	(OO|OV)...
	Starting AA second half-transformation.
	Starting AB second half-transformation.
	Starting BB second half-transformation.
	Two-electron integral transformation complete.
	(OO|VV)...
	Starting AA second half-transformation.
	Starting AB second half-transformation.
	Starting BB second half-transformation.
	Two-electron integral transformation complete.
	(OV|OO)...
	Starting AA/AB first half-transformation.
	Sorting AA/AB half-transformed integrals.
	Starting BB first half-transformation.
	Sorting BB half-transformed integrals.
	First half integral transformation complete.
	Starting AA second half-transformation.
	Starting AB second half-transformation.
	Starting BB second half-transformation.
	Two-electron integral transformation complete.
	(OV|OV)...
	Starting AA second half-transformation.
	Starting AB second half-transformation.
	Starting BB second half-transformation.
	Two-electron integral transformation complete.
	(OV|VV)...
	Starting AA second half-transformation.
	Starting AB second half-transformation.
	Starting BB second half-transformation.
	Two-electron integral transformation complete.
	(VV|OO)...
	Starting AA/AB first half-transformation.
	Sorting AA/AB half-transformed integrals.
	Starting BB first half-transformation.
	Sorting BB half-transformed integrals.
	First half integral transformation complete.
	Starting AA second half-transformation.
	Starting AB second half-transformation.
	Starting BB second half-transformation.
	Two-electron integral transformation complete.
	(VV|OV)...
	Starting AA second half-transformation.
	Starting AB second half-transformation.
	Starting BB second half-transformation.
	Two-electron integral transformation complete.
	(VV|VV)...
	Starting AA second half-transformation.
	Starting AB second half-transformation.
	Starting BB second half-transformation.
	Two-electron integral transformation complete.
	Frozen core energy     =   -424.16966996272788

	Size of irrep 0 of <AB|CD> integrals:      1.145 (MW) /      9.159 (MB)
	Size of irrep 1 of <AB|CD> integrals:      0.682 (MW) /      5.458 (MB)
	Size of irrep 2 of <AB|CD> integrals:      0.933 (MW) /      7.465 (MB)
	Size of irrep 3 of <AB|CD> integrals:      0.933 (MW) /      7.465 (MB)
	Total:                                     3.693 (MW) /     29.548 (MB)

	Size of irrep 0 of <ab|cd> integrals:      1.237 (MW) /      9.892 (MB)
	Size of irrep 1 of <ab|cd> integrals:      0.755 (MW) /      6.041 (MB)
	Size of irrep 2 of <ab|cd> integrals:      1.024 (MW) /      8.193 (MB)
	Size of irrep 3 of <ab|cd> integrals:      1.024 (MW) /      8.193 (MB)
	Total:                                     4.040 (MW) /     32.320 (MB)

	Size of irrep 0 of <Ab|Cd> integrals:      5.153 (MW) /     41.223 (MB)
	Size of irrep 1 of <Ab|Cd> integrals:      2.870 (MW) /     22.957 (MB)
	Size of irrep 2 of <Ab|Cd> integrals:      3.912 (MW) /     31.300 (MB)
	Size of irrep 3 of <Ab|Cd> integrals:      3.912 (MW) /     31.300 (MB)
	Total:                                    15.848 (MW) /    126.780 (MB)

	Size of irrep 0 of <IA|BC> integrals:      0.421 (MW) /      3.369 (MB)
	Size of irrep 1 of <IA|BC> integrals:      0.193 (MW) /      1.546 (MB)
	Size of irrep 2 of <IA|BC> integrals:      0.299 (MW) /      2.396 (MB)
	Size of irrep 3 of <IA|BC> integrals:      0.299 (MW) /      2.396 (MB)
	Total:                                     1.213 (MW) /      9.706 (MB)

	Size of irrep 0 of <ia|bc> integrals:      0.345 (MW) /      2.758 (MB)
	Size of irrep 1 of <ia|bc> integrals:      0.134 (MW) /      1.071 (MB)
	Size of irrep 2 of <ia|bc> integrals:      0.227 (MW) /      1.814 (MB)
	Size of irrep 3 of <ia|bc> integrals:      0.227 (MW) /      1.814 (MB)
	Total:                                     0.932 (MW) /      7.456 (MB)

	Size of irrep 0 of <Ia|Bc> integrals:      0.438 (MW) /      3.505 (MB)
	Size of irrep 1 of <Ia|Bc> integrals:      0.205 (MW) /      1.640 (MB)
	Size of irrep 2 of <Ia|Bc> integrals:      0.313 (MW) /      2.500 (MB)
	Size of irrep 3 of <Ia|Bc> integrals:      0.313 (MW) /      2.500 (MB)
	Total:                                     1.268 (MW) /     10.145 (MB)

	Size of irrep 0 of <iA|bC> integrals:      0.334 (MW) /      2.670 (MB)
	Size of irrep 1 of <iA|bC> integrals:      0.127 (MW) /      1.016 (MB)
	Size of irrep 2 of <iA|bC> integrals:      0.216 (MW) /      1.725 (MB)
	Size of irrep 3 of <iA|bC> integrals:      0.216 (MW) /      1.725 (MB)
	Total:                                     0.892 (MW) /      7.136 (MB)

	Size of irrep 0 of tIjAb amplitudes:       0.030 (MW) /      0.236 (MB)
	Size of irrep 1 of tIjAb amplitudes:       0.007 (MW) /      0.054 (MB)
	Size of irrep 2 of tIjAb amplitudes:       0.018 (MW) /      0.142 (MB)
	Size of irrep 3 of tIjAb amplitudes:       0.018 (MW) /      0.142 (MB)
	Total:                                     0.072 (MW) /      0.575 (MB)

	Nuclear Rep. energy          =     40.93496666323470
	SCF energy                   =   -415.65414500650655
	One-electron energy          =    -60.10544493444410
	Two-electron (AA) energy     =      7.65128596503622
	Two-electron (BB) energy     =      4.12847722916726
	Two-electron (AB) energy     =     15.90624003322777
	Two-electron energy          =     27.68600322743124
	Reference energy             =   -415.65414500650604

*** tstop() called on cqc05 at Thu Aug 20 20:05:32 2020
Module time:
	user time   =       1.77 seconds =       0.03 minutes
	system time =       0.99 seconds =       0.02 minutes
	total time  =          3 seconds =       0.05 minutes
Total time:
	user time   =       5.69 seconds =       0.09 minutes
	system time =       1.20 seconds =       0.02 minutes
	total time  =          7 seconds =       0.12 minutes

*** tstart() called on cqc05
*** at Thu Aug 20 20:05:32 2020

            **************************
            *                        *
            *        CCENERGY        *
            *                        *
            **************************

    Nuclear Rep. energy (wfn)     =   40.934966663234697
    SCF energy          (wfn)     = -415.654145006506553
    Reference energy    (file100) = -415.654145006506042

    Input parameters:
    -----------------
    Wave function   =     CCSD
    Reference wfn   =     UHF
    Brueckner       =     No
    Memory (Mbytes) =     250000.0
    Maxiter         =     50
    R_Convergence   =     1.0e-07
    E_Convergence   =     1.0e-06
    Restart         =     Yes
    DIIS            =     Yes
    AO Basis        =     NONE
    ABCD            =     NEW
    Cache Level     =     2
    Cache Type      =     LRU
    Print Level     =     1
    Num. of threads =     4
    # Amps to Print =     10
    Print MP2 Amps? =     No
    Analyze T2 Amps =     No
    Print Pair Ener =     No
    Local CC        =     No
    SCS-MP2         =     False
    SCSN-MP2        =     False
    SCS-CCSD        =     False

MP2 correlation energy -0.3734607760096446
                Solving CC Amplitude Equations
                ------------------------------
  Iter             Energy              RMS        T1Diag      D1Diag    New D1Diag    D2Diag
  ----     ---------------------    ---------   ----------  ----------  ----------   --------
     0        -0.373460776009702    0.000e+00    0.000000    0.000000    0.000000    0.000000
     1        -0.365489779428094    1.099e-01    0.025182    0.000000    0.000000    0.000000
     2        -0.378171746629893    4.180e-02    0.024013    0.000000    0.000000    0.000000
     3        -0.382346303511289    2.379e-02    0.030681    0.000000    0.000000    0.000000
     4        -0.382188043665626    8.107e-03    0.033559    0.000000    0.000000    0.000000
     5        -0.382105174723053    4.092e-03    0.034826    0.000000    0.000000    0.000000
     6        -0.382168703715745    1.543e-03    0.035300    0.000000    0.000000    0.000000
     7        -0.382154783441716    7.684e-04    0.035401    0.000000    0.000000    0.000000
     8        -0.382153559604267    2.660e-04    0.035419    0.000000    0.000000    0.000000
     9        -0.382161325876665    1.288e-04    0.035434    0.000000    0.000000    0.000000
    10        -0.382156966268672    5.686e-05    0.035437    0.000000    0.000000    0.000000
    11        -0.382156465023358    2.329e-05    0.035434    0.000000    0.000000    0.000000
    12        -0.382156318665044    1.186e-05    0.035437    0.000000    0.000000    0.000000
    13        -0.382156129075715    4.308e-06    0.035436    0.000000    0.000000    0.000000
    14        -0.382156205500463    2.059e-06    0.035436    0.000000    0.000000    0.000000
    15        -0.382156230674716    7.773e-07    0.035436    0.000000    0.000000    0.000000
    16        -0.382156217552975    3.558e-07    0.035436    0.000000    0.000000    0.000000
    17        -0.382156220724478    1.472e-07    0.035436    0.000000    0.000000    0.000000
    18        -0.382156219562299    5.735e-08    0.035436    0.000000    0.000000    0.000000
    18        -0.382156219562299    5.735e-08    0.035436    0.000000    0.000000    0.000000

    Iterations converged.

    CCSD corr. energy   =   -0.382156219562299
    PPL corr. energy    =    0.089173788776373
    OS PPL corr. energy =    0.071360150136242
    SS PPL corr. energy =    0.017813638640133
    Largest TIA Amplitudes:
              4  46        -0.0258006529
              6  67        -0.0257994250
              5  69        -0.0247074306
              3  48        -0.0247072196
              5  68         0.0217045743
              3  47         0.0217044208
              2   3        -0.0211415922
              2   2        -0.0182440430
              2   7         0.0150168436
              2   6         0.0142203785

    Largest Tia Amplitudes:
              3  47         0.0448436954
              4  69         0.0448404562
              2   3         0.0217025137
              3  46        -0.0201508575
              4  68        -0.0201490161
              1   3        -0.0190624191
              1   6         0.0186321728
              2   6        -0.0140197931
              3  50        -0.0132043919
              4  72        -0.0132038226

    Largest TIJAB Amplitudes:
      6   4  35   4        -0.0335790954
      6   4  36   8        -0.0279485278
      6   4  67  46        -0.0264195478
      6   4  35   8        -0.0234885062
      6   4  36   4        -0.0234885062
      6   4  69  48        -0.0187812901
      6   4  70  49        -0.0171067172
      6   4  70  46         0.0169542993

      * MP2 total energy                      = -416.027605782515707
      * CCSD total energy                     = -416.036301226068360
*** Psi4 exiting successfully. Buy a developer a beer!
