                               Psi4 1.2a1.dev938

  ==> Input File <==

--------------------------------------------------------------------------
# Any line starting with the # character is a comment line
memory 250000 mb
molecule molecule{
1 3
O          0.0000000000        0.0000000000        0.0606658924
H          0.0000000000        0.0000000000       -0.9629718824
}

set {
  reference uhf
  basis aug-cc-pv(q+d)z
  scf_type OUT_OF_CORE
  freeze_core true
}

energy('ccsd')
--------------------------------------------------------------------------

    Molecular point group: c2v

    Geometry (in Angstrom), charge = 1, multiplicity = 3:

       Center              X                  Y                   Z               Mass
    ------------   -----------------  -----------------  -----------------  -----------------
           O          0.000000000000     0.000000000000     0.060675384929    15.994914619560
           H          0.000000000000     0.000000000000    -0.962962389871     1.007825032070

  Charge       = 1
  Multiplicity = 3
  Basis Set: AUG-CC-PV(Q+D)Z
    Blend: AUG-CC-PV(Q+D)Z

    Orbital Energies (a.u.)
    -----------------------

    Alpha Occupied:

       1A1   -21.253714     2A1    -1.968176     1B1    -1.215557
       1B2    -1.215557     3A1    -1.203967

    Alpha Virtual:

       4A1    -0.194808     5A1    -0.087797     2B2    -0.080441
       2B1    -0.080441     6A1    -0.050798     7A1     0.002009
       3B2     0.007922     3B1     0.007922     8A1     0.089297
       1A2     0.176103     9A1     0.176103    10A1     0.229605
       4B2     0.278096     4B1     0.278096     5B2     0.328980
       5B1     0.328980    11A1     0.370028     2A2     0.421670
      12A1     0.421670    13A1     0.430476     6B2     0.447948
       6B1     0.447948    14A1     0.477970     7B2     0.808975
       7B1     0.808975    15A1     0.863216     8B1     0.962822
       8B2     0.962822    16A1     1.050905     3A2     1.050905
      17A1     1.091838     9B2     1.190837     9B1     1.190837
      18A1     1.217026     4A2     1.217026    19A1     1.275115
      20A1     1.337603    10B2     1.388443    10B1     1.388443
      11B2     1.389415    11B1     1.389415    21A1     1.574272
       5A2     1.576953    22A1     1.576953    12B2     1.751375
      12B1     1.751375    23A1     1.974577    13B1     2.113729
      13B2     2.113729     6A2     2.477120    24A1     2.477120
      14B2     2.523251    14B1     2.523251    25A1     2.615168
      26A1     3.161135     7A2     3.200238    27A1     3.200238
      15B2     3.331796    15B1     3.331796    16B1     3.423680
      16B2     3.423680    28A1     3.515775    17B1     3.590576
      17B2     3.590576    29A1     3.685794     8A2     3.685794
      30A1     3.689389    31A1     3.704216     9A2     3.704216
      18B2     3.748545    18B1     3.748545    32A1     3.931658
      19B1     4.229730    19B2     4.229730    10A2     4.284723
      33A1     4.284723    34A1     4.757440    20B1     4.981438
      20B2     4.981438    35A1     5.217032    21B1     6.214163
      21B2     6.214163    11A2     7.116636    36A1     7.116636
      37A1     7.192312    22B2     7.275757    22B1     7.275757
      38A1     7.946523    12A2     8.081767    39A1     8.081767
      23B1     8.304763    23B2     8.304763    24B1     9.088596
      24B2     9.088596    40A1     9.131641    13A2    10.024110
      41A1    10.024110    25B1    10.172809    25B2    10.172809
      26B1    10.311202    26B2    10.311202    42A1    10.402243
      14A2    10.538822    43A1    10.538822    27B2    10.978359
      27B1    10.978359    44A1    10.995624    28B1    11.230384
      28B2    11.230384    45A1    11.414483    15A2    11.414483
      46A1    11.419039    29B1    11.994234    29B2    11.994234
      47A1    12.154143    16A2    12.154143    48A1    13.458466
      30B1    13.532200    30B2    13.532200    49A1    15.863671
      50A1    42.077133

    Beta Occupied:

       1A1   -21.165697     2A1    -1.633616     3A1    -1.111803

    Beta Virtual:

       1B1    -0.340492     1B2    -0.340492     4A1    -0.179209
       5A1    -0.082545     2B2    -0.051257     2B1    -0.051257
       6A1    -0.044737     7A1     0.006625     3B2     0.010881
       3B1     0.010881     8A1     0.099138     1A2     0.192377
       9A1     0.192377    10A1     0.234706     4B2     0.286809
       4B1     0.286809    11A1     0.373057     5B2     0.391620
       5B1     0.391620    12A1     0.422750     2A2     0.422750
      13A1     0.448671     6B1     0.479927     6B2     0.479927
      14A1     0.490567     7B2     0.828688     7B1     0.828688
      15A1     0.889986     8B1     0.975701     8B2     0.975701
      16A1     1.111747    17A1     1.145715     3A2     1.145715
       9B2     1.207290     9B1     1.207290    18A1     1.226823
       4A2     1.226823    19A1     1.285660    20A1     1.344322
      10B2     1.392065    10B1     1.392065    11B2     1.416064
      11B1     1.416064     5A2     1.584707    21A1     1.584707
      22A1     1.591666    12B2     1.779691    12B1     1.779691
      23A1     1.988722    13B2     2.225213    13B1     2.225213
       6A2     2.491778    24A1     2.491778    14B2     2.528206
      14B1     2.528206    25A1     2.630773    26A1     3.195039
       7A2     3.224875    27A1     3.224875    15B2     3.382160
      15B1     3.382160    16B1     3.456728    16B2     3.456728
      28A1     3.552666    17B1     3.649561    17B2     3.649561
      29A1     3.734329     8A2     3.734329    30A1     3.760725
      18B2     3.789222    18B1     3.789222    31A1     3.829114
       9A2     3.829114    32A1     3.942961    19B1     4.292615
      19B2     4.292615    10A2     4.350674    33A1     4.350674
      34A1     4.786790    20B1     5.022140    20B2     5.022140
      35A1     5.260597    21B1     6.215040    21B2     6.215040
      11A2     7.124991    36A1     7.124991    37A1     7.203630
      22B2     7.278543    22B1     7.278543    38A1     7.954189
      12A2     8.080541    39A1     8.080541    23B1     8.307931
      23B2     8.307931    24B1     9.108743    24B2     9.108743
      40A1     9.142666    13A2    10.097423    41A1    10.097423
      25B1    10.230515    25B2    10.230515    42A1    10.429026
      26B1    10.431552    26B2    10.431552    14A2    10.583513
      43A1    10.583513    27B2    11.021796    27B1    11.021796
      44A1    11.037654    28B1    11.353860    28B2    11.353860
      45A1    11.471475    46A1    11.503047    15A2    11.503047
      29B1    12.056643    29B2    12.056643    47A1    12.301836
      16A2    12.301836    48A1    13.489550    30B1    13.600151
      30B2    13.600151    49A1    15.892454    50A1    42.130247

    Final Occupation by Irrep:
             A1    A2    B1    B2
    DOCC [     3,    0,    0,    0 ]
    SOCC [     0,    0,    1,    1 ]

  Energy converged.

  @UHF Final Energy:   -75.00955985843741

   => Energetics <=

    Nuclear Repulsion Energy =              4.1356598720158919
    One-Electron Energy =                -107.5223519494899733
    Two-Electron Energy =                  28.3771322190366604
    Total Energy =                        -75.0095598584374272

  UHF NO Occupations:
  HONO-2 :    3 A1 1.9946272
  HONO-1 :    1 B1 1.0000000
  HONO-0 :    1 B2 1.0000000
  LUNO+0 :    4 A1 0.0053728
  LUNO+1 :    5 A1 0.0016242
  LUNO+2 :    6 A1 0.0000027
  LUNO+3 :    7 A1 0.0000000

Properties will be evaluated at   0.000000,   0.000000,   0.000000 Bohr

Properties computed using the SCF density matrix

  Nuclear Dipole Moment: (a.u.)
     X:     0.0000      Y:     0.0000      Z:    -0.9025

  Electronic Dipole Moment: (a.u.)
     X:     0.0000      Y:     0.0000      Z:    -0.0255

  Dipole Moment: (a.u.)
     X:     0.0000      Y:     0.0000      Z:    -0.9280     Total:     0.9280

  Dipole Moment: (Debye)
     X:     0.0000      Y:     0.0000      Z:    -2.3587     Total:     2.3587

*** tstop() called on cqc05 at Thu Aug 20 21:30:51 2020
Module time:
	user time   =       4.69 seconds =       0.08 minutes
	system time =       0.26 seconds =       0.00 minutes
	total time  =          4 seconds =       0.07 minutes
Total time:
	user time   =       4.69 seconds =       0.08 minutes
	system time =       0.26 seconds =       0.00 minutes
	total time  =          4 seconds =       0.07 minutes

*** tstart() called on cqc05
*** at Thu Aug 20 21:30:51 2020

	Wfn Parameters:
	--------------------
	Wavefunction         = CCSD
	Number of irreps     = 4
	Number of MOs        = 126
	Number of active MOs = 125
	AO-Basis             = NONE
	Semicanonical        = false
	Reference            = UHF
	Print Level          = 1

	IRREP	# MOs	# FZDC	# DOCC	# SOCC	# VIRT	# FZVR
	-----	-----	------	------	------	------	------
	 A1	   50	    1	    2	    0	    47	    0
	 A2	   16	    0	    0	    0	    16	    0
	 B1	   30	    0	    0	    1	    29	    0
	 B2	   30	    0	    0	    1	    29	    0
	Transforming integrals...
	IWL integrals will be deleted.
	(OO|OO)...
	Presorting SO-basis two-electron integrals.
	Sorting File: SO Ints (nn|nn) nbuckets = 1
	Transforming the one-electron integrals and constructing Fock matrices
	Starting AA/AB first half-transformation.
	Sorting AA/AB half-transformed integrals.
	Starting BB first half-transformation.
	Sorting BB half-transformed integrals.
	First half integral transformation complete.
	Starting AA second half-transformation.
	Starting AB second half-transformation.
	Starting BB second half-transformation.
	Two-electron integral transformation complete.
	(OO|OV)...
	Starting AA second half-transformation.
	Starting AB second half-transformation.
	Starting BB second half-transformation.
	Two-electron integral transformation complete.
	(OO|VV)...
	Starting AA second half-transformation.
	Starting AB second half-transformation.
	Starting BB second half-transformation.
	Two-electron integral transformation complete.
	(OV|OO)...
	Starting AA/AB first half-transformation.
	Sorting AA/AB half-transformed integrals.
	Starting BB first half-transformation.
	Sorting BB half-transformed integrals.
	First half integral transformation complete.
	Starting AA second half-transformation.
	Starting AB second half-transformation.
	Starting BB second half-transformation.
	Two-electron integral transformation complete.
	(OV|OV)...
	Starting AA second half-transformation.
	Starting AB second half-transformation.
	Starting BB second half-transformation.
	Two-electron integral transformation complete.
	(OV|VV)...
	Starting AA second half-transformation.
	Starting AB second half-transformation.
	Starting BB second half-transformation.
	Two-electron integral transformation complete.
	(VV|OO)...
	Starting AA/AB first half-transformation.
	Sorting AA/AB half-transformed integrals.
	Starting BB first half-transformation.
	Sorting BB half-transformed integrals.
	First half integral transformation complete.
	Starting AA second half-transformation.
	Starting AB second half-transformation.
	Starting BB second half-transformation.
	Two-electron integral transformation complete.
	(VV|OV)...
	Starting AA second half-transformation.
	Starting AB second half-transformation.
	Starting BB second half-transformation.
	Two-electron integral transformation complete.
	(VV|VV)...
	Starting AA second half-transformation.
	Starting AB second half-transformation.
	Starting BB second half-transformation.
	Two-electron integral transformation complete.
	Frozen core energy     =    -60.14076286356620

	Size of irrep 0 of <AB|CD> integrals:      4.052 (MW) /     32.417 (MB)
	Size of irrep 1 of <AB|CD> integrals:      2.538 (MW) /     20.301 (MB)
	Size of irrep 2 of <AB|CD> integrals:      3.338 (MW) /     26.703 (MB)
	Size of irrep 3 of <AB|CD> integrals:      3.338 (MW) /     26.703 (MB)
	Total:                                    13.266 (MW) /    106.125 (MB)

	Size of irrep 0 of <ab|cd> integrals:      4.289 (MW) /     34.312 (MB)
	Size of irrep 1 of <ab|cd> integrals:      2.729 (MW) /     21.833 (MB)
	Size of irrep 2 of <ab|cd> integrals:      3.572 (MW) /     28.577 (MB)
	Size of irrep 3 of <ab|cd> integrals:      3.572 (MW) /     28.577 (MB)
	Total:                                    14.162 (MW) /    113.299 (MB)

	Size of irrep 0 of <Ab|Cd> integrals:     17.682 (MW) /    141.456 (MB)
	Size of irrep 1 of <Ab|Cd> integrals:     10.524 (MW) /     84.188 (MB)
	Size of irrep 2 of <Ab|Cd> integrals:     13.816 (MW) /    110.529 (MB)
	Size of irrep 3 of <Ab|Cd> integrals:     13.816 (MW) /    110.529 (MB)
	Total:                                    55.838 (MW) /    446.702 (MB)

	Size of irrep 0 of <IA|BC> integrals:      0.630 (MW) /      5.043 (MB)
	Size of irrep 1 of <IA|BC> integrals:      0.287 (MW) /      2.294 (MB)
	Size of irrep 2 of <IA|BC> integrals:      0.442 (MW) /      3.537 (MB)
	Size of irrep 3 of <IA|BC> integrals:      0.442 (MW) /      3.537 (MB)
	Total:                                     1.801 (MW) /     14.411 (MB)

	Size of irrep 0 of <ia|bc> integrals:      0.401 (MW) /      3.207 (MB)
	Size of irrep 1 of <ia|bc> integrals:      0.106 (MW) /      0.846 (MB)
	Size of irrep 2 of <ia|bc> integrals:      0.227 (MW) /      1.814 (MB)
	Size of irrep 3 of <ia|bc> integrals:      0.227 (MW) /      1.814 (MB)
	Total:                                     0.960 (MW) /      7.682 (MB)

	Size of irrep 0 of <Ia|Bc> integrals:      0.648 (MW) /      5.181 (MB)
	Size of irrep 1 of <Ia|Bc> integrals:      0.298 (MW) /      2.388 (MB)
	Size of irrep 2 of <Ia|Bc> integrals:      0.457 (MW) /      3.658 (MB)
	Size of irrep 3 of <Ia|Bc> integrals:      0.457 (MW) /      3.658 (MB)
	Total:                                     1.860 (MW) /     14.883 (MB)

	Size of irrep 0 of <iA|bC> integrals:      0.395 (MW) /      3.162 (MB)
	Size of irrep 1 of <iA|bC> integrals:      0.104 (MW) /      0.830 (MB)
	Size of irrep 2 of <iA|bC> integrals:      0.216 (MW) /      1.725 (MB)
	Size of irrep 3 of <iA|bC> integrals:      0.216 (MW) /      1.725 (MB)
	Total:                                     0.930 (MW) /      7.442 (MB)

	Size of irrep 0 of tIjAb amplitudes:       0.017 (MW) /      0.135 (MB)
	Size of irrep 1 of tIjAb amplitudes:       0.000 (MW) /      0.000 (MB)
	Size of irrep 2 of tIjAb amplitudes:       0.007 (MW) /      0.059 (MB)
	Size of irrep 3 of tIjAb amplitudes:       0.007 (MW) /      0.059 (MB)
	Total:                                     0.032 (MW) /      0.254 (MB)

	Nuclear Rep. energy          =      4.13565987201589
	SCF energy                   =    -75.00955985843741
	One-electron energy          =    -29.66023745543434
	Two-electron (AA) energy     =      4.04944091028626
	Two-electron (BB) energy     =      0.56085340090006
	Two-electron (AB) energy     =      6.04548627736078
	Two-electron energy          =     10.65578058854710
	Reference energy             =    -75.00955985843754

*** tstop() called on cqc05 at Thu Aug 20 21:31:00 2020
Module time:
	user time   =       5.01 seconds =       0.08 minutes
	system time =       3.67 seconds =       0.06 minutes
	total time  =          9 seconds =       0.15 minutes
Total time:
	user time   =       9.70 seconds =       0.16 minutes
	system time =       3.93 seconds =       0.07 minutes
	total time  =         13 seconds =       0.22 minutes

*** tstart() called on cqc05
*** at Thu Aug 20 21:31:00 2020

            **************************
            *                        *
            *        CCENERGY        *
            *                        *
            **************************

    Nuclear Rep. energy (wfn)     =    4.135659872015892
    SCF energy          (wfn)     =  -75.009559858437413
    Reference energy    (file100) =  -75.009559858437541

    Input parameters:
    -----------------
    Wave function   =     CCSD
    Reference wfn   =     UHF
    Brueckner       =     No
    Memory (Mbytes) =     250000.0
    Maxiter         =     50
    R_Convergence   =     1.0e-07
    E_Convergence   =     1.0e-06
    Restart         =     Yes
    DIIS            =     Yes
    AO Basis        =     NONE
    ABCD            =     NEW
    Cache Level     =     2
    Cache Type      =     LRU
    Print Level     =     1
    Num. of threads =     4
    # Amps to Print =     10
    Print MP2 Amps? =     No
    Analyze T2 Amps =     No
    Print Pair Ener =     No
    Local CC        =     No
    SCS-MP2         =     False
    SCSN-MP2        =     False
    SCS-CCSD        =     False

MP2 correlation energy -0.1576374258586714
                Solving CC Amplitude Equations
                ------------------------------
  Iter             Energy              RMS        T1Diag      D1Diag    New D1Diag    D2Diag
  ----     ---------------------    ---------   ----------  ----------  ----------   --------
     0        -0.157637425858672    0.000e+00    0.000000    0.000000    0.000000    0.000000
     1        -0.169569611141375    3.033e-02    0.007051    0.000000    0.000000    0.000000
     2        -0.173909592519875    1.186e-02    0.010507    0.000000    0.000000    0.000000
     3        -0.174194801602622    3.973e-03    0.011739    0.000000    0.000000    0.000000
     4        -0.174191063727254    1.765e-03    0.011987    0.000000    0.000000    0.000000
     5        -0.174228487436636    7.845e-04    0.012007    0.000000    0.000000    0.000000
     6        -0.174236741957992    2.418e-04    0.011984    0.000000    0.000000    0.000000
     7        -0.174237663040904    7.764e-05    0.011979    0.000000    0.000000    0.000000
     8        -0.174237282093494    2.428e-05    0.011982    0.000000    0.000000    0.000000
     9        -0.174236884028784    7.702e-06    0.011983    0.000000    0.000000    0.000000
    10        -0.174236964314515    2.160e-06    0.011983    0.000000    0.000000    0.000000
    11        -0.174236973564311    6.683e-07    0.011983    0.000000    0.000000    0.000000
    12        -0.174236987522134    2.007e-07    0.011983    0.000000    0.000000    0.000000
    13        -0.174236987837307    6.618e-08    0.011983    0.000000    0.000000    0.000000
    13        -0.174236987837307    6.618e-08    0.011983    0.000000    0.000000    0.000000

    Iterations converged.

    CCSD corr. energy   =   -0.174236987837307
    PPL corr. energy    =    0.036167430874164
    OS PPL corr. energy =    0.030874878638497
    SS PPL corr. energy =    0.005292552235668
    Largest TIA Amplitudes:
              1   0         0.0077143550
              2  63        -0.0058344325
              3  92        -0.0058344325
              1   1        -0.0056191000
              0   0        -0.0053476754
              1   4        -0.0050124857
              2  66        -0.0050053532
              3  95        -0.0050053532
              0   2        -0.0041758921
              0   6         0.0034328123

    Largest Tia Amplitudes:
              0   0        -0.0086112069
              0   4         0.0075571741
              0  12        -0.0062953175
              0   2        -0.0057610596
              0   1         0.0050981217
              0   6         0.0049912172
              0   9        -0.0043251298
              1   6        -0.0041582152
              0  10        -0.0040126893
              1  18        -0.0034789168

      * MP2 total energy                      =  -75.167197284296208
      * CCSD total energy                     =  -75.183796846274845
*** Psi4 exiting successfully. Buy a developer a beer!
