                               Psi4 1.2a1.dev939

  ==> Input File <==

--------------------------------------------------------------------------
# Any line starting with the # character is a comment line
memory 250000 mb
molecule molecule{
1 3
O          0.0000000000        0.0000000000        0.0606658924
H          0.0000000000        0.0000000000       -0.9629718824
}

set {
  reference uhf
  basis aug-cc-pv(6+d)z
  scf_type OUT_OF_CORE
  freeze_core true
}

energy('ccsd')
--------------------------------------------------------------------------

    Molecular point group: c2v

    Geometry (in Angstrom), charge = 1, multiplicity = 3:

       Center              X                  Y                   Z               Mass
    ------------   -----------------  -----------------  -----------------  -----------------
           O          0.000000000000     0.000000000000     0.060675384929    15.994914619560
           H          0.000000000000     0.000000000000    -0.962962389871     1.007825032070

  Charge       = 1
  Multiplicity = 3
  Basis Set: AUG-CC-PV(6+D)Z
    Blend: AUG-CC-PV(6+D)Z

    Orbital Energies (a.u.)
    -----------------------

    Alpha Occupied:

       1A1   -21.252881     2A1    -1.967952     1B2    -1.215719
       1B1    -1.215719     3A1    -1.204034

    Alpha Virtual:

       4A1    -0.194837     5A1    -0.098885     2B2    -0.097124
       2B1    -0.097124     6A1    -0.068100     7A1    -0.025139
       3B2    -0.018526     3B1    -0.018526     8A1     0.033055
       9A1     0.082257    10A1     0.091154     1A2     0.091154
       4B2     0.109560     4B1     0.109560     5B1     0.176213
       5B2     0.176213    11A1     0.176359    12A1     0.207740
       2A2     0.218311    13A1     0.218311     6B2     0.224525
       6B1     0.224525    14A1     0.302956    15A1     0.437229
       7B1     0.511688     7B2     0.511688     8B1     0.554291
       8B2     0.554291    16A1     0.565418     9B2     0.645829
       9B1     0.645829    17A1     0.647518    18A1     0.655559
       3A2     0.655559    19A1     0.696957     4A2     0.696957
      10B2     0.746834    10B1     0.746834    20A1     0.763825
      11B2     0.808005    11B1     0.808005    12B2     0.823317
      12B1     0.823317    21A1     0.828740     5A2     0.828740
      22A1     0.883586    23A1     1.041544    13B2     1.128777
      13B1     1.128777    24A1     1.353281    25A1     1.466754
      26A1     1.494625     6A2     1.494625    14B2     1.584304
      14B1     1.584304     7A2     1.633068    27A1     1.633068
      28A1     1.643398    15B2     1.799515    15B1     1.799515
      16B1     1.833951    16B2     1.833951    29A1     1.893753
      30A1     1.939277     8A2     1.939277    17B2     1.955860
      17B1     1.955860    18B2     1.960884    18B1     1.960884
      31A1     2.024305     9A2     2.024305    10A2     2.024349
      32A1     2.024349    19B2     2.123461    19B1     2.123461
      33A1     2.142888    11A2     2.142888    34A1     2.173643
      20B2     2.237121    20B1     2.237121    35A1     2.317643
      21B2     2.378587    21B1     2.378587    36A1     2.459773
      22B2     2.486330    22B1     2.486330    12A2     2.548929
      37A1     2.548929    38A1     2.680381    39A1     3.071558
      23B2     3.277120    23B1     3.277120    24B2     3.393857
      24B1     3.393857    40A1     3.627572    13A2     3.627572
      41A1     3.630578    25B1     3.791832    25B2     3.791832
      42A1     4.028357    43A1     4.073822    14A2     4.073822
      26B2     4.134406    26B1     4.134406    27B2     4.303330
      27B1     4.303330    28B2     4.331843    28B1     4.331843
      44A1     4.364687    15A2     4.417902    45A1     4.417902
      16A2     4.477217    46A1     4.477217    29B1     4.588165
      29B2     4.588165    30B2     4.619058    30B1     4.619058
      47A1     4.718794    31B2     4.756407    31B1     4.756407
      17A2     4.812388    48A1     4.812388    32B2     4.816513
      32B1     4.816513    18A2     4.871111    49A1     4.871111
      50A1     4.929658    33B2     4.940987    33B1     4.940987
      19A2     5.083942    51A1     5.083942    34B2     5.161904
      34B1     5.161904    35B1     5.254739    35B2     5.254739
      52A1     5.301684    53A1     5.374065    20A2     5.374065
      54A1     5.431368    21A2     5.431368    55A1     5.731801
      36B2     5.909436    36B1     5.909436    56A1     5.957382
      37B2     6.639532    37B1     6.639532    57A1     6.646034
      22A2     6.891054    58A1     6.891054    59A1     7.050997
      23A2     7.050997    38B2     7.214043    38B1     7.214043
      60A1     7.418702    39B2     7.946295    39B1     7.946295
      40B1     8.186023    40B2     8.186023    24A2     8.563058
      61A1     8.563058    62A1     8.662148    63A1     8.811169
      64A1     8.879224    25A2     8.879224    41B2     8.983926
      41B1     8.983926    42B2     9.058402    42B1     9.058402
      26A2     9.318198    65A1     9.318198    43B2     9.551294
      43B1     9.551294    66A1     9.558368    27A2     9.782642
      67A1     9.782642    28A2     9.988353    68A1     9.988353
      44B2    10.093246    44B1    10.093246    69A1    10.244052
      45B1    10.298720    45B2    10.298720    46B2    10.373170
      46B1    10.373170    70A1    10.434352    47B2    10.529484
      47B1    10.529484    29A2    10.577160    71A1    10.577160
      30A2    10.799922    72A1    10.799922    48B2    10.851520
      48B1    10.851520    73A1    10.928230    49B1    11.108650
      49B2    11.108650    31A2    11.668572    74A1    11.668572
      50B2    11.904087    50B1    11.904087    51B2    12.292447
      51B1    12.292447    32A2    12.445450    75A1    12.445450
      76A1    12.750292    52B1    12.821521    52B2    12.821521
      33A2    13.032579    77A1    13.032579    53B2    13.143678
      53B1    13.143678    78A1    13.478642    54B2    13.532063
      54B1    13.532063    79A1    14.022056    80A1    14.053909
      34A2    14.053909    81A1    14.463923    35A2    14.463923
      82A1    15.220878    55B2    15.312517    55B1    15.312517
      56B2    16.953878    56B1    16.953878    57B2    17.025063
      57B1    17.025063    83A1    17.471458    36A2    17.471458
      84A1    17.790886    58B1    18.727562    58B2    18.727562
      37A2    19.579890    85A1    19.579890    86A1    19.841129
      38A2    19.841129    87A1    19.882629    59B2    20.447158
      59B1    20.447158    60B2    20.642550    60B1    20.642550
      61B2    20.741232    61B1    20.741232    88A1    20.844943
      89A1    21.254603    39A2    21.254603    90A1    21.951515
      91A1    22.138864    40A2    22.138864    62B2    22.236318
      62B1    22.236318    41A2    22.411727    92A1    22.411727
      93A1    22.578832    42A2    22.578832    63B2    22.666491
      63B1    22.666491    64B2    23.151434    64B1    23.151434
      94A1    23.528516    65B2    23.652393    65B1    23.652393
      66B1    23.700719    66B2    23.700719    95A1    23.870396
      43A2    24.349751    96A1    24.349751    97A1    25.438525
      98A1    25.583717    44A2    25.583717    67B1    25.689970
      67B2    25.689970    68B2    26.097585    68B1    26.097585
      69B2    26.198472    69B1    26.198472    99A1    26.364727
      45A2    26.364727   100A1    26.597107    70B1    26.610564
      70B2    26.610564    46A2    26.915168   101A1    26.915168
     102A1    27.054591    71B1    27.488670    71B2    27.488670
     103A1    27.792215    72B2    27.913937    72B1    27.913937
     104A1    28.995064    47A2    28.995064    48A2    30.860577
     105A1    30.860577    73B1    31.088816    73B2    31.088816
      74B1    31.493973    74B2    31.493973    49A2    32.077707
     106A1    32.077707   107A1    32.498844    75B1    32.850383
      75B2    32.850383   108A1    33.166600   109A1    34.198609
      50A2    34.198609    76B1    35.106024    76B2    35.106024
     110A1    37.653711    77B1    37.867622    77B2    37.867622
     111A1    41.659288   112A1   104.156629

    Beta Occupied:

       1A1   -21.165272     2A1    -1.633391     3A1    -1.111876

    Beta Virtual:

       1B1    -0.340426     1B2    -0.340426     4A1    -0.179228
       5A1    -0.095335     2B2    -0.079000     2B1    -0.079000
       6A1    -0.063032     7A1    -0.022645     3B2    -0.015652
       3B1    -0.015652     8A1     0.038359     9A1     0.088024
       1A2     0.098993    10A1     0.098993     4B2     0.152006
       4B1     0.152006    11A1     0.184435     5B2     0.186109
       5B1     0.186109    12A1     0.210820     2A2     0.218989
      13A1     0.218989     6B2     0.224839     6B1     0.224839
      14A1     0.311869    15A1     0.442514     7B2     0.515249
       7B1     0.515249     8B2     0.573067     8B1     0.573067
      16A1     0.580302     9B2     0.647635     9B1     0.647635
      17A1     0.652672     3A2     0.667258    18A1     0.667258
      19A1     0.743363     4A2     0.743363    20A1     0.771320
      10B2     0.796183    10B1     0.796183    11B2     0.823889
      11B1     0.823889    21A1     0.829538     5A2     0.829538
      12B2     0.844429    12B1     0.844429    22A1     0.897626
      23A1     1.053039    13B2     1.157408    13B1     1.157408
      24A1     1.370597    25A1     1.469398     6A2     1.503148
      26A1     1.503148    14B2     1.586476    14B1     1.586476
       7A2     1.638652    27A1     1.638652    28A1     1.658044
      15B2     1.814207    15B1     1.814207    16B1     1.858345
      16B2     1.858345    29A1     1.911032     8A2     1.951021
      30A1     1.951021    17B2     1.967035    17B1     1.967035
      18B2     1.967700    18B1     1.967700     9A2     2.026560
      31A1     2.026560    32A1     2.066200    10A2     2.066200
      19B2     2.127612    19B1     2.127612    33A1     2.182207
      34A1     2.212086    11A2     2.212086    20B2     2.248074
      20B1     2.248074    35A1     2.325278    21B2     2.430491
      21B1     2.430491    36A1     2.500405    22B2     2.562873
      22B1     2.562873    37A1     2.572676    12A2     2.572676
      38A1     2.706786    39A1     3.088616    23B2     3.315501
      23B1     3.315501    24B2     3.398680    24B1     3.398680
      13A2     3.634331    40A1     3.634331    41A1     3.637208
      25B2     3.798156    25B1     3.798156    42A1     4.044727
      43A1     4.081060    14A2     4.081060    26B2     4.143497
      26B1     4.143497    27B2     4.309680    27B1     4.309680
      28B2     4.337867    28B1     4.337867    44A1     4.379965
      45A1     4.437546    15A2     4.437546    16A2     4.488264
      46A1     4.488264    29B1     4.605309    29B2     4.605309
      30B2     4.634231    30B1     4.634231    47A1     4.724907
      31B2     4.784604    31B1     4.784604    17A2     4.824986
      48A1     4.824986    32B2     4.847731    32B1     4.847731
      49A1     4.880068    18A2     4.880068    50A1     4.935782
      33B2     4.949049    33B1     4.949049    19A2     5.108730
      51A1     5.108730    34B1     5.198255    34B2     5.198255
      35B1     5.276634    35B2     5.276634    52A1     5.325493
      53A1     5.431277    20A2     5.431277    54A1     5.526197
      21A2     5.526197    55A1     5.764647    36B1     5.973051
      36B2     5.973051    56A1     6.003698    37B2     6.656905
      37B1     6.656905    57A1     6.678566    58A1     6.931645
      22A2     6.931645    59A1     7.053912    23A2     7.053912
      38B1     7.289309    38B2     7.289309    60A1     7.436084
      39B1     7.986523    39B2     7.986523    40B2     8.195333
      40B1     8.195333    24A2     8.566401    61A1     8.566401
      62A1     8.687379    63A1     8.825554    64A1     8.897292
      25A2     8.897292    41B2     9.001045    41B1     9.001045
      42B2     9.073795    42B1     9.073795    26A2     9.327627
      65A1     9.327627    43B2     9.552497    43B1     9.552497
      66A1     9.562218    67A1     9.796910    27A2     9.796910
      68A1    10.001153    28A2    10.001153    44B2    10.111829
      44B1    10.111829    69A1    10.260851    45B1    10.334215
      45B2    10.334215    46B2    10.379671    46B1    10.379671
      70A1    10.455955    47B2    10.541710    47B1    10.541710
      71A1    10.603407    29A2    10.603407    72A1    10.810390
      30A2    10.810390    48B2    10.858757    48B1    10.858757
      73A1    10.938974    49B2    11.145059    49B1    11.145059
      74A1    11.708682    31A2    11.708682    50B1    11.985965
      50B2    11.985965    51B1    12.326678    51B2    12.326678
      32A2    12.513406    75A1    12.513406    76A1    12.772912
      52B1    12.870794    52B2    12.870794    77A1    13.088843
      33A2    13.088843    53B1    13.169117    53B2    13.169117
      78A1    13.516305    54B1    13.558549    54B2    13.558549
      79A1    14.057760    80A1    14.151118    34A2    14.151118
      81A1    14.499143    35A2    14.499143    82A1    15.246253
      55B1    15.358041    55B2    15.358041    56B1    16.977402
      56B2    16.977402    57B2    17.024635    57B1    17.024635
      83A1    17.472533    36A2    17.472533    84A1    17.805359
      58B1    18.732145    58B2    18.732145    85A1    19.588686
      37A2    19.588686    86A1    19.840257    38A2    19.840257
      87A1    19.899192    59B2    20.458862    59B1    20.458862
      60B2    20.643250    60B1    20.643250    61B1    20.750103
      61B2    20.750103    88A1    20.855834    89A1    21.254464
      39A2    21.254464    90A1    21.975566    91A1    22.178010
      40A2    22.178010    62B2    22.269706    62B1    22.269706
      41A2    22.410651    92A1    22.410651    93A1    22.606850
      42A2    22.606850    63B1    22.728502    63B2    22.728502
      64B1    23.169097    64B2    23.169097    94A1    23.536993
      65B2    23.654999    65B1    23.654999    66B1    23.713035
      66B2    23.713035    95A1    23.884136    96A1    24.362591
      43A2    24.362591    97A1    25.452885    98A1    25.589588
      44A2    25.589588    67B1    25.698910    67B2    25.698910
      68B1    26.104376    68B2    26.104376    69B2    26.256474
      69B1    26.256474    45A2    26.412488    99A1    26.412488
     100A1    26.618982    70B1    26.649628    70B2    26.649628
     101A1    26.948819    46A2    26.948819   102A1    27.068033
      71B1    27.518056    71B2    27.518056   103A1    27.820462
      72B1    27.997712    72B2    27.997712   104A1    29.052464
      47A2    29.052464    48A2    30.932145   105A1    30.932145
      73B1    31.145513    73B2    31.145513    74B1    31.531738
      74B2    31.531738   106A1    32.123286    49A2    32.123286
     107A1    32.530529    75B1    32.887952    75B2    32.887952
     108A1    33.194365   109A1    34.269665    50A2    34.269665
      76B1    35.123162    76B2    35.123162   110A1    37.671562
      77B1    37.887927    77B2    37.887927   111A1    41.666839
     112A1   104.178205

    Final Occupation by Irrep:
             A1    A2    B1    B2
    DOCC [     3,    0,    0,    0 ]
    SOCC [     0,    0,    1,    1 ]

  Energy converged.

  @UHF Final Energy:   -75.01098910485314

   => Energetics <=

    Nuclear Repulsion Energy =              4.1356598720158919
    One-Electron Energy =                -107.5264527496817522
    Two-Electron Energy =                  28.3798037728127213
    Total Energy =                        -75.0109891048531381

  UHF NO Occupations:
  HONO-2 :    3 A1 1.9946218
  HONO-1 :    1 B2 1.0000000
  HONO-0 :    1 B1 1.0000000
  LUNO+0 :    4 A1 0.0053782
  LUNO+1 :    5 A1 0.0016235
  LUNO+2 :    6 A1 0.0000030
  LUNO+3 :    7 A1 0.0000000

Properties will be evaluated at   0.000000,   0.000000,   0.000000 Bohr

Properties computed using the SCF density matrix

  Nuclear Dipole Moment: (a.u.)
     X:     0.0000      Y:     0.0000      Z:    -0.9025

  Electronic Dipole Moment: (a.u.)
     X:     0.0000      Y:     0.0000      Z:    -0.0257

  Dipole Moment: (a.u.)
     X:     0.0000      Y:     0.0000      Z:    -0.9282     Total:     0.9282

  Dipole Moment: (Debye)
     X:     0.0000      Y:     0.0000      Z:    -2.3592     Total:     2.3592

*** tstop() called on n412-050.vsc4.prov at Sat Oct 31 04:57:27 2020
Module time:
	user time   =     565.37 seconds =       9.42 minutes
	system time =      34.65 seconds =       0.58 minutes
	total time  =        516 seconds =       8.60 minutes
Total time:
	user time   =     565.37 seconds =       9.42 minutes
	system time =      34.65 seconds =       0.58 minutes
	total time  =        516 seconds =       8.60 minutes

*** tstart() called on n412-050.vsc4.prov
*** at Sat Oct 31 04:57:27 2020

	Wfn Parameters:
	--------------------
	Wavefunction         = CCSD
	Number of irreps     = 4
	Number of MOs        = 316
	Number of active MOs = 315
	AO-Basis             = NONE
	Semicanonical        = false
	Reference            = UHF
	Print Level          = 1

	IRREP	# MOs	# FZDC	# DOCC	# SOCC	# VIRT	# FZVR
	-----	-----	------	------	------	------	------
	 A1	   112	    1	    2	    0	    109	    0
	 A2	   50	    0	    0	    0	    50	    0
	 B1	   77	    0	    0	    1	    76	    0
	 B2	   77	    0	    0	    1	    76	    0
	Transforming integrals...
	IWL integrals will be deleted.
	(OO|OO)...
	Presorting SO-basis two-electron integrals.
	Sorting File: SO Ints (nn|nn) nbuckets = 1
	Transforming the one-electron integrals and constructing Fock matrices
	Starting AA/AB first half-transformation.
	Sorting AA/AB half-transformed integrals.
	Starting BB first half-transformation.
	Sorting BB half-transformed integrals.
	First half integral transformation complete.
	Starting AA second half-transformation.
	Starting AB second half-transformation.
	Starting BB second half-transformation.
	Two-electron integral transformation complete.
	(OO|OV)...
	Starting AA second half-transformation.
	Starting AB second half-transformation.
	Starting BB second half-transformation.
	Two-electron integral transformation complete.
	(OO|VV)...
	Starting AA second half-transformation.
	Starting AB second half-transformation.
	Starting BB second half-transformation.
	Two-electron integral transformation complete.
	(OV|OO)...
	Starting AA/AB first half-transformation.
	Sorting AA/AB half-transformed integrals.
	Starting BB first half-transformation.
	Sorting BB half-transformed integrals.
	First half integral transformation complete.
	Starting AA second half-transformation.
	Starting AB second half-transformation.
	Starting BB second half-transformation.
	Two-electron integral transformation complete.
	(OV|OV)...
	Starting AA second half-transformation.
	Starting AB second half-transformation.
	Starting BB second half-transformation.
	Two-electron integral transformation complete.
	(OV|VV)...
	Starting AA second half-transformation.
	Starting AB second half-transformation.
	Starting BB second half-transformation.
	Two-electron integral transformation complete.
	(VV|OO)...
	Starting AA/AB first half-transformation.
	Sorting AA/AB half-transformed integrals.
	Starting BB first half-transformation.
	Sorting BB half-transformed integrals.
	First half integral transformation complete.
	Starting AA second half-transformation.
	Starting AB second half-transformation.
	Starting BB second half-transformation.
	Two-electron integral transformation complete.
	(VV|OV)...
	Starting AA second half-transformation.
	Starting AB second half-transformation.
	Starting BB second half-transformation.
	Two-electron integral transformation complete.
	(VV|VV)...
	Starting AA second half-transformation.
	Starting AB second half-transformation.
	Starting BB second half-transformation.
	Two-electron integral transformation complete.
	Frozen core energy     =    -60.14092248946160

	Size of irrep 0 of <AB|CD> integrals:    164.122 (MW) /   1312.974 (MB)
	Size of irrep 1 of <AB|CD> integrals:    126.023 (MW) /   1008.185 (MB)
	Size of irrep 2 of <AB|CD> integrals:    146.023 (MW) /   1168.184 (MB)
	Size of irrep 3 of <AB|CD> integrals:    146.023 (MW) /   1168.184 (MB)
	Total:                                   582.191 (MW) /   4657.527 (MB)

	Size of irrep 0 of <ab|cd> integrals:    168.039 (MW) /   1344.315 (MB)
	Size of irrep 1 of <ab|cd> integrals:    129.482 (MW) /   1035.853 (MB)
	Size of irrep 2 of <ab|cd> integrals:    149.891 (MW) /   1199.128 (MB)
	Size of irrep 3 of <ab|cd> integrals:    149.891 (MW) /   1199.128 (MB)
	Total:                                   597.303 (MW) /   4778.425 (MB)

	Size of irrep 0 of <Ab|Cd> integrals:    680.427 (MW) /   5443.418 (MB)
	Size of irrep 1 of <Ab|Cd> integrals:    510.941 (MW) /   4087.527 (MB)
	Size of irrep 2 of <Ab|Cd> integrals:    591.803 (MW) /   4734.423 (MB)
	Size of irrep 3 of <Ab|Cd> integrals:    591.803 (MW) /   4734.423 (MB)
	Total:                                  2374.974 (MW) /  18999.791 (MB)

	Size of irrep 0 of <IA|BC> integrals:      9.595 (MW) /     76.762 (MB)
	Size of irrep 1 of <IA|BC> integrals:      5.658 (MW) /     45.263 (MB)
	Size of irrep 2 of <IA|BC> integrals:      7.516 (MW) /     60.130 (MB)
	Size of irrep 3 of <IA|BC> integrals:      7.516 (MW) /     60.130 (MB)
	Total:                                    30.286 (MW) /    242.285 (MB)

	Size of irrep 0 of <ia|bc> integrals:      5.720 (MW) /     45.761 (MB)
	Size of irrep 1 of <ia|bc> integrals:      2.276 (MW) /     18.206 (MB)
	Size of irrep 2 of <ia|bc> integrals:      3.771 (MW) /     30.167 (MB)
	Size of irrep 3 of <ia|bc> integrals:      3.771 (MW) /     30.167 (MB)
	Total:                                    15.538 (MW) /    124.301 (MB)

      * MP2 total energy                      =  -75.175511507455909
      * CCSD total energy                     =  -75.190262192632233
*** Psi4 exiting successfully. Buy a developer a beer!
