                               Psi4 1.2a1.dev938

  ==> Input File <==

--------------------------------------------------------------------------
# Any line starting with the # character is a comment line
memory 250000 mb
molecule molecule{
1 3
O          0.0000000000        0.0000000000        0.0606658924
H          0.0000000000        0.0000000000       -0.9629718824
}

set {
  reference uhf
  basis aug-cc-pv(t+d)z
  scf_type OUT_OF_CORE
  freeze_core true
}

energy('ccsd')
--------------------------------------------------------------------------

    Molecular point group: c2v

    Geometry (in Angstrom), charge = 1, multiplicity = 3:

       Center              X                  Y                   Z               Mass
    ------------   -----------------  -----------------  -----------------  -----------------
           O          0.000000000000     0.000000000000     0.060675384929    15.994914619560
           H          0.000000000000     0.000000000000    -0.962962389871     1.007825032070

  Charge       = 1
  Multiplicity = 3
  Basis Set: AUG-CC-PV(T+D)Z
    Blend: AUG-CC-PV(T+D)Z

    Orbital Energies (a.u.)
    -----------------------

    Alpha Occupied:

       1A1   -21.255221     2A1    -1.968936     1B1    -1.215200
       1B2    -1.215200     3A1    -1.204011

    Alpha Virtual:

       4A1    -0.194787     5A1    -0.080731     2B2    -0.071423
       2B1    -0.071423     6A1    -0.042196     7A1     0.017430
       3B2     0.037029     3B1     0.037029     8A1     0.147265
       1A2     0.295292     9A1     0.295292    10A1     0.325472
       4B1     0.414244     4B2     0.414244     5B1     0.506297
       5B2     0.506297    11A1     0.548580    12A1     0.599902
       2A2     0.629963    13A1     0.629963     6B2     0.656848
       6B1     0.656848    14A1     0.688647     7B1     1.123240
       7B2     1.123240    15A1     1.322574    16A1     1.542786
      17A1     1.604878     3A2     1.604878     8B2     1.618064
       8B1     1.618064     9B2     1.817409     9B1     1.817409
      18A1     1.890307     4A2     1.890307    19A1     2.024486
      20A1     2.110285    10B1     2.319801    10B2     2.319801
      21A1     3.066587    11B2     3.483826    11B1     3.483826
       5A2     3.565833    22A1     3.565833    12B1     3.870435
      12B2     3.870435    23A1     4.068269    24A1     4.541409
      13B2     4.649962    13B1     4.649962    25A1     5.677721
      14B2     5.868438    14B1     5.868438     6A2     6.033722
      26A1     6.033722    27A1     6.361340     7A2     6.361340
      15B1     6.524801    15B2     6.524801    16B2     6.629491
      16B1     6.629491    28A1     6.772473    29A1     7.038756
      30A1    11.465950

    Beta Occupied:

       1A1   -21.167299     2A1    -1.634643     3A1    -1.111645

    Beta Virtual:

       1B1    -0.340943     1B2    -0.340943     4A1    -0.179227
       5A1    -0.074325     2B1    -0.036977     2B2    -0.036977
       6A1    -0.035410     7A1     0.022929     3B2     0.042272
       3B1     0.042272     8A1     0.160576     9A1     0.326236
       1A2     0.326236    10A1     0.332675     4B1     0.429894
       4B2     0.429894    11A1     0.555310     5B1     0.602878
       5B2     0.602878    12A1     0.623532     2A2     0.633757
      13A1     0.633757     6B2     0.690560     6B1     0.690560
      14A1     0.702575     7B1     1.139115     7B2     1.139115
      15A1     1.353405    16A1     1.587460     8B1     1.651974
       8B2     1.651974     3A2     1.747339    17A1     1.747339
       9B2     1.873948     9B1     1.873948    18A1     1.921190
       4A2     1.921190    19A1     2.054013    20A1     2.142919
      10B1     2.357639    10B2     2.357639    21A1     3.075200
       5A2     3.568805    22A1     3.568805    11B2     3.632291
      11B1     3.632291    12B1     3.865998    12B2     3.865998
      23A1     4.091705    24A1     4.573178    13B2     4.696377
      13B1     4.696377    25A1     5.723787    14B2     5.980633
      14B1     5.980633     6A2     6.117428    26A1     6.117428
       7A2     6.558568    27A1     6.558568    15B1     6.583511
      15B2     6.583511    16B2     6.740256    16B1     6.740256
      28A1     6.811203    29A1     7.104655    30A1    11.539831

    Final Occupation by Irrep:
             A1    A2    B1    B2
    DOCC [     3,    0,    0,    0 ]
    SOCC [     0,    0,    1,    1 ]

  Energy converged.

  @UHF Final Energy:   -75.00438799266561

   => Energetics <=

    Nuclear Repulsion Energy =              4.1356598720158919
    One-Electron Energy =                -107.5079403214143809
    Two-Electron Energy =                  28.3678924567328892
    PCM Polarization Energy =               0.0000000000000000
    Total Energy =                        -75.0043879926655990

    Alert: EFP and PCM quantities not currently incorporated into SCF psivars.
  UHF NO Occupations:
  HONO-2 :    3 A1 1.9946658
  HONO-1 :    1 B1 1.0000000
  HONO-0 :    1 B2 1.0000000
  LUNO+0 :    4 A1 0.0053342
  LUNO+1 :    5 A1 0.0016175
  LUNO+2 :    6 A1 0.0000026
  LUNO+3 :    7 A1 0.0000000

Properties will be evaluated at   0.000000,   0.000000,   0.000000 Bohr

Properties computed using the SCF density matrix

  Nuclear Dipole Moment: (a.u.)
     X:     0.0000      Y:     0.0000      Z:    -0.9025

  Electronic Dipole Moment: (a.u.)
     X:     0.0000      Y:     0.0000      Z:    -0.0263

  Dipole Moment: (a.u.)
     X:     0.0000      Y:     0.0000      Z:    -0.9288     Total:     0.9288

  Dipole Moment: (Debye)
     X:     0.0000      Y:     0.0000      Z:    -2.3607     Total:     2.3607

*** tstop() called on cqc05 at Thu Aug 20 20:04:03 2020
Module time:
	user time   =       0.99 seconds =       0.02 minutes
	system time =       0.03 seconds =       0.00 minutes
	total time  =          1 seconds =       0.02 minutes
Total time:
	user time   =       0.99 seconds =       0.02 minutes
	system time =       0.03 seconds =       0.00 minutes
	total time  =          1 seconds =       0.02 minutes

*** tstart() called on cqc05
*** at Thu Aug 20 20:04:03 2020

	Wfn Parameters:
	--------------------
	Wavefunction         = CCSD
	Number of irreps     = 4
	Number of MOs        = 69
	Number of active MOs = 68
	AO-Basis             = NONE
	Semicanonical        = false
	Reference            = UHF
	Print Level          = 1

	IRREP	# MOs	# FZDC	# DOCC	# SOCC	# VIRT	# FZVR
	-----	-----	------	------	------	------	------
	 A1	   30	    1	    2	    0	    27	    0
	 A2	   7	    0	    0	    0	    7	    0
	 B1	   16	    0	    0	    1	    15	    0
	 B2	   16	    0	    0	    1	    15	    0
	Transforming integrals...
	IWL integrals will be deleted.
	(OO|OO)...
	Presorting SO-basis two-electron integrals.
	Sorting File: SO Ints (nn|nn) nbuckets = 1
	Transforming the one-electron integrals and constructing Fock matrices
	Starting AA/AB first half-transformation.
	Sorting AA/AB half-transformed integrals.
	Starting BB first half-transformation.
	Sorting BB half-transformed integrals.
	First half integral transformation complete.
	Starting AA second half-transformation.
	Starting AB second half-transformation.
	Starting BB second half-transformation.
	Two-electron integral transformation complete.
	(OO|OV)...
	Starting AA second half-transformation.
	Starting AB second half-transformation.
	Starting BB second half-transformation.
	Two-electron integral transformation complete.
	(OO|VV)...
	Starting AA second half-transformation.
	Starting AB second half-transformation.
	Starting BB second half-transformation.
	Two-electron integral transformation complete.
	(OV|OO)...
	Starting AA/AB first half-transformation.
	Sorting AA/AB half-transformed integrals.
	Starting BB first half-transformation.
	Sorting BB half-transformed integrals.
	First half integral transformation complete.
	Starting AA second half-transformation.
	Starting AB second half-transformation.
	Starting BB second half-transformation.
	Two-electron integral transformation complete.
	(OV|OV)...
	Starting AA second half-transformation.
	Starting AB second half-transformation.
	Starting BB second half-transformation.
	Two-electron integral transformation complete.
	(OV|VV)...
	Starting AA second half-transformation.
	Starting AB second half-transformation.
	Starting BB second half-transformation.
	Two-electron integral transformation complete.
	(VV|OO)...
	Starting AA/AB first half-transformation.
	Sorting AA/AB half-transformed integrals.
	Starting BB first half-transformation.
	Sorting BB half-transformed integrals.
	First half integral transformation complete.
	Starting AA second half-transformation.
	Starting AB second half-transformation.
	Starting BB second half-transformation.
	Two-electron integral transformation complete.
	(VV|OV)...
	Starting AA second half-transformation.
	Starting AB second half-transformation.
	Starting BB second half-transformation.
	Two-electron integral transformation complete.
	(VV|VV)...
	Starting AA second half-transformation.
	Starting AB second half-transformation.
	Starting BB second half-transformation.
	Two-electron integral transformation complete.
	Frozen core energy     =    -60.13954083604104

	Size of irrep 0 of <AB|CD> integrals:      0.339 (MW) /      2.710 (MB)
	Size of irrep 1 of <AB|CD> integrals:      0.171 (MW) /      1.371 (MB)
	Size of irrep 2 of <AB|CD> integrals:      0.260 (MW) /      2.081 (MB)
	Size of irrep 3 of <AB|CD> integrals:      0.260 (MW) /      2.081 (MB)
	Total:                                     1.030 (MW) /      8.243 (MB)

	Size of irrep 0 of <ab|cd> integrals:      0.375 (MW) /      2.996 (MB)
	Size of irrep 1 of <ab|cd> integrals:      0.198 (MW) /      1.584 (MB)
	Size of irrep 2 of <ab|cd> integrals:      0.296 (MW) /      2.367 (MB)
	Size of irrep 3 of <ab|cd> integrals:      0.296 (MW) /      2.367 (MB)
	Total:                                     1.164 (MW) /      9.316 (MB)

	Size of irrep 0 of <Ab|Cd> integrals:      1.583 (MW) /     12.661 (MB)
	Size of irrep 1 of <Ab|Cd> integrals:      0.736 (MW) /      5.889 (MB)
	Size of irrep 2 of <Ab|Cd> integrals:      1.111 (MW) /      8.887 (MB)
	Size of irrep 3 of <Ab|Cd> integrals:      1.111 (MW) /      8.887 (MB)
	Total:                                     4.541 (MW) /     36.324 (MB)

	Size of irrep 0 of <IA|BC> integrals:      0.103 (MW) /      0.825 (MB)
	Size of irrep 1 of <IA|BC> integrals:      0.036 (MW) /      0.291 (MB)
	Size of irrep 2 of <IA|BC> integrals:      0.065 (MW) /      0.522 (MB)
	Size of irrep 3 of <IA|BC> integrals:      0.065 (MW) /      0.522 (MB)
	Total:                                     0.270 (MW) /      2.161 (MB)

	Size of irrep 0 of <ia|bc> integrals:      0.070 (MW) /      0.557 (MB)
	Size of irrep 1 of <ia|bc> integrals:      0.012 (MW) /      0.100 (MB)
	Size of irrep 2 of <ia|bc> integrals:      0.035 (MW) /      0.279 (MB)
	Size of irrep 3 of <ia|bc> integrals:      0.035 (MW) /      0.279 (MB)
	Total:                                     0.152 (MW) /      1.214 (MB)

	Size of irrep 0 of <Ia|Bc> integrals:      0.108 (MW) /      0.866 (MB)
	Size of irrep 1 of <Ia|Bc> integrals:      0.039 (MW) /      0.316 (MB)
	Size of irrep 2 of <Ia|Bc> integrals:      0.070 (MW) /      0.557 (MB)
	Size of irrep 3 of <Ia|Bc> integrals:      0.070 (MW) /      0.557 (MB)
	Total:                                     0.287 (MW) /      2.294 (MB)

	Size of irrep 0 of <iA|bC> integrals:      0.068 (MW) /      0.543 (MB)
	Size of irrep 1 of <iA|bC> integrals:      0.012 (MW) /      0.096 (MB)
	Size of irrep 2 of <iA|bC> integrals:      0.032 (MW) /      0.253 (MB)
	Size of irrep 3 of <iA|bC> integrals:      0.032 (MW) /      0.253 (MB)
	Total:                                     0.143 (MW) /      1.145 (MB)

	Size of irrep 0 of tIjAb amplitudes:       0.005 (MW) /      0.040 (MB)
	Size of irrep 1 of tIjAb amplitudes:       0.000 (MW) /      0.000 (MB)
	Size of irrep 2 of tIjAb amplitudes:       0.002 (MW) /      0.017 (MB)
	Size of irrep 3 of tIjAb amplitudes:       0.002 (MW) /      0.017 (MB)
	Total:                                     0.009 (MW) /      0.074 (MB)

	Nuclear Rep. energy          =      4.13565987201589
	SCF energy                   =    -75.00438799266561
	One-electron energy          =    -29.65137765847689
	Two-electron (AA) energy     =      4.04716173169491
	Two-electron (BB) energy     =      0.56074678155135
	Two-electron (AB) energy     =      6.04296211659020
	Two-electron energy          =     10.65087062983647
	Reference energy             =    -75.00438799266558

*** tstop() called on cqc05 at Thu Aug 20 20:04:04 2020
Module time:
	user time   =       0.45 seconds =       0.01 minutes
	system time =       0.26 seconds =       0.00 minutes
	total time  =          1 seconds =       0.02 minutes
Total time:
	user time   =       1.44 seconds =       0.02 minutes
	system time =       0.29 seconds =       0.00 minutes
	total time  =          2 seconds =       0.03 minutes

*** tstart() called on cqc05
*** at Thu Aug 20 20:04:04 2020

            **************************
            *                        *
            *        CCENERGY        *
            *                        *
            **************************

    Nuclear Rep. energy (wfn)     =    4.135659872015892
    SCF energy          (wfn)     =  -75.004387992665613
    Reference energy    (file100) =  -75.004387992665585

    Input parameters:
    -----------------
    Wave function   =     CCSD
    Reference wfn   =     UHF
    Brueckner       =     No
    Memory (Mbytes) =     250000.0
    Maxiter         =     50
    R_Convergence   =     1.0e-07
    E_Convergence   =     1.0e-06
    Restart         =     Yes
    DIIS            =     Yes
    AO Basis        =     NONE
    ABCD            =     NEW
    Cache Level     =     2
    Cache Type      =     LRU
    Print Level     =     1
    Num. of threads =     4
    # Amps to Print =     10
    Print MP2 Amps? =     No
    Analyze T2 Amps =     No
    Print Pair Ener =     No
    Local CC        =     No
    SCS-MP2         =     False
    SCSN-MP2        =     False
    SCS-CCSD        =     False

MP2 correlation energy -0.1456590656274320
                Solving CC Amplitude Equations
                ------------------------------
  Iter             Energy              RMS        T1Diag      D1Diag    New D1Diag    D2Diag
  ----     ---------------------    ---------   ----------  ----------  ----------   --------
     0        -0.145659065627432    0.000e+00    0.000000    0.000000    0.000000    0.000000
     1        -0.159014451743301    3.126e-02    0.007133    0.000000    0.000000    0.000000
     2        -0.163449236840287    1.207e-02    0.010607    0.000000    0.000000    0.000000
     3        -0.163778326543294    4.059e-03    0.011851    0.000000    0.000000    0.000000
     4        -0.163771198809375    1.802e-03    0.012084    0.000000    0.000000    0.000000
     5        -0.163810643734930    8.015e-04    0.012093    0.000000    0.000000    0.000000
     6        -0.163819477340010    2.325e-04    0.012072    0.000000    0.000000    0.000000
     7        -0.163819389290444    7.433e-05    0.012067    0.000000    0.000000    0.000000
     8        -0.163819055112284    2.425e-05    0.012070    0.000000    0.000000    0.000000
     9        -0.163818842126003    6.886e-06    0.012071    0.000000    0.000000    0.000000
    10        -0.163818853466087    1.833e-06    0.012072    0.000000    0.000000    0.000000
    11        -0.163818851278053    5.960e-07    0.012072    0.000000    0.000000    0.000000
    12        -0.163818858289748    1.786e-07    0.012072    0.000000    0.000000    0.000000
    13        -0.163818858033549    5.751e-08    0.012072    0.000000    0.000000    0.000000
    13        -0.163818858033549    5.751e-08    0.012072    0.000000    0.000000    0.000000

    Iterations converged.

    CCSD corr. energy   =   -0.163818858033549
    PPL corr. energy    =    0.032595983798938
    OS PPL corr. energy =    0.027662406658589
    SS PPL corr. energy =    0.004933577140349
    Largest TIA Amplitudes:
              1   0         0.0084420777
              1   1         0.0068948180
              2  34        -0.0065754698
              3  49        -0.0065754698
              0   0        -0.0056303229
              2  37        -0.0051015912
              3  52        -0.0051015912
              1   4        -0.0048712090
              0   2        -0.0045521148
              1   3        -0.0038525926

    Largest Tia Amplitudes:
              0   0        -0.0077352194
              0   4         0.0072302390
              0   6        -0.0059042591
              0   1        -0.0056791750
              0  12        -0.0055840392
              0   2        -0.0050741135
              0  10        -0.0046313478
              1   6         0.0042188057
              1  19         0.0035559341
              0  11         0.0035329751

    Largest TIJAB Amplitudes:
      3   2  52  37        -0.0163204924
      3   2  29  13        -0.0159449619
      2   1  37   8        -0.0122278469
      3   1  52   8        -0.0122278469
      2   1  37   1         0.0099627947
      3   1  52   1         0.0099627947
      3   2  58  43        -0.0095952896
      3   2  27  13        -0.0094018991
      3   2  29   5        -0.0094018991
      2   1  37   0         0.0093458503

    Largest Tijab Amplitudes:
      1   0  37  34         0.0101798512
      1   0  53  50         0.0101798512
      1   0  42  34        -0.0080343302
      1   0  58  50        -0.0080343302
      1   0  40  34         0.0074482140
      1   0  56  50         0.0074482140
      1   0   8   0         0.0061244474
      1   0  36  34         0.0055731330
      1   0  52  50         0.0055731330
      1   0   8   4        -0.0053243310

    Largest TIjAb Amplitudes:
      2   0  13  34         0.0277768472
      2   0  29  50         0.0277768472
      3   0  13  50        -0.0277768472
      3   0  29  34         0.0277768472
      1   1   0   0        -0.0238304138
      1   1   0   4         0.0226347171
      1   1   8   8        -0.0213409380
      1   1   0   1        -0.0206826018
      1   1   4   4        -0.0199928087
      2   0   5  34         0.0194710195

      * MP2 total energy                      =  -75.150047058293012
      * CCSD total energy                     =  -75.168206850699136
*** Psi4 exiting successfully. Buy a developer a beer!
