                               Psi4 1.4a3.dev88

  ==> Input File <==

--------------------------------------------------------------------------
# Any line starting with the # character is a comment line
memory 250000 mb
molecule molecule{
0 1
Cl         0.0000000000        0.0000000000       -0.0351730808
H          0.0000000000        0.0000000000        1.2371681191
}

set {
  reference rhf
  basis aug-cc-pv(q+d)z
  scf_type OUT_OF_CORE
  freeze_core true
}

energy('ccsd(t)')
--------------------------------------------------------------------------

    Molecular point group: c2v

    Geometry (in Angstrom), charge = 0, multiplicity = 1:

       Center              X                  Y                   Z               Mass
    ------------   -----------------  -----------------  -----------------  -----------------
         CL           0.000000000000     0.000000000000    -0.035642460401    34.968852682000
         H            0.000000000000     0.000000000000     1.236698739499     1.007825032230

  Charge       = 0
  Multiplicity = 1
  Basis Set: AUG-CC-PV(Q+D)Z
    Blend: AUG-CC-PV(Q+D)Z

    Orbital Energies [Eh]
    ---------------------

    Doubly Occupied:

       1A1  -104.848406     2A1   -10.574178     3A1    -8.041524
       1B2    -8.039553     1B1    -8.039553     4A1    -1.117386
       5A1    -0.626502     2B2    -0.477102     2B1    -0.477102

  @RHF Final Energy:  -460.11204408182311

   => Energetics <=

    Nuclear Repulsion Energy =              7.0704403678015337
    One-Electron Energy =                -649.8823599063056236
    Two-Electron Energy =                 182.6998754566809851
    Total Energy =                       -460.1120440818231145

  Dipole Moment: [D]
     X:     0.0000      Y:     0.0000      Z:     1.1784     Total:     1.1784

      * MP2 total energy                      = -460.337299128245206
      * CCSD total energy                     = -460.355906334831730
      * CCSD(T) total energy                  = -460.365819714922281
*** Psi4 exiting successfully. Buy a developer a beer!
