                               Psi4 1.4a3.dev88

  ==> Input File <==

--------------------------------------------------------------------------
# Any line starting with the # character is a comment line
memory 250000 mb
molecule molecule{
0 1
Cl         0.0000000000        0.0000000000       -0.0351730808
H          0.0000000000        0.0000000000        1.2371681191
}

set {
  reference rhf
  basis aug-cc-pV(5+d)Z
  scf_type OUT_OF_CORE
  freeze_core true
}

energy('ccsd(t)')
--------------------------------------------------------------------------

    Molecular point group: c2v

    Geometry (in Angstrom), charge = 0, multiplicity = 1:

       Center              X                  Y                   Z               Mass
    ------------   -----------------  -----------------  -----------------  -----------------
         CL           0.000000000000     0.000000000000    -0.035642460401    34.968852682000
         H            0.000000000000     0.000000000000     1.236698739499     1.007825032230

  Charge       = 0
  Multiplicity = 1
  Basis Set: AUG-CC-PV(5+D)Z
    Blend: AUG-CC-PV(5+D)Z

    Orbital Energies [Eh]
    ---------------------

    Doubly Occupied:

       1A1  -104.848861     2A1   -10.574211     3A1    -8.041447
       1B2    -8.039660     1B1    -8.039660     4A1    -1.117309
       5A1    -0.626494     2B2    -0.477082     2B1    -0.477082

  @RHF Final Energy:  -460.11265536873327

   => Energetics <=

    Nuclear Repulsion Energy =              7.0704403678015337
    One-Electron Energy =                -649.8825768344941025
    Two-Electron Energy =                 182.6994810979593069
    Total Energy =                       -460.1126553687332716

  Dipole Moment: [D]
     X:     0.0000      Y:     0.0000      Z:     1.1773     Total:     1.1773

      * MP2 total energy                      = -460.345373724454078
      * CCSD total energy                     = -460.361603867130555
      * CCSD(T) total energy                  = -460.371953660442728
*** Psi4 exiting successfully. Buy a developer a beer!
