                               Psi4 1.4a3.dev88

  ==> Input File <==

--------------------------------------------------------------------------
# Any line starting with the # character is a comment line
memory 250000 mb
molecule molecule{
0 1
Cl         0.0000000000        0.0000000000       -0.0351730808
H          0.0000000000        0.0000000000        1.2371681191
}

set {
  reference rhf
  basis aug-cc-pV(t+d)Z
  scf_type OUT_OF_CORE
  freeze_core true
}

energy('ccsd(t)')
--------------------------------------------------------------------------

    Molecular point group: c2v

    Geometry (in Angstrom), charge = 0, multiplicity = 1:

       Center              X                  Y                   Z               Mass
    ------------   -----------------  -----------------  -----------------  -----------------
         CL           0.000000000000     0.000000000000    -0.035642460401    34.968852682000
         H            0.000000000000     0.000000000000     1.236698739499     1.007825032230

  Charge       = 0
  Multiplicity = 1
  Basis Set: AUG-CC-PV(T+D)Z
    Blend: AUG-CC-PV(T+D)Z

    Orbital Energies [Eh]
    ---------------------

    Doubly Occupied:

       1A1  -104.850079     2A1   -10.574904     3A1    -8.042082
       1B2    -8.039894     1B1    -8.039894     4A1    -1.117682
       5A1    -0.626673     2B2    -0.477194     2B1    -0.477194

  @RHF Final Energy:  -460.10867648329491

   => Energetics <=

    Nuclear Repulsion Energy =              7.0704403678015337
    One-Electron Energy =                -649.8670434293968583
    Two-Electron Energy =                 182.6879265783003632
    Total Energy =                       -460.1086764832949711

  Dipole Moment: [D]
     X:     0.0000      Y:     0.0000      Z:     1.1826     Total:     1.1826

      * MP2 total energy                      = -460.316688558798660
      * CCSD total energy                     = -460.336942704139915
      * CCSD(T) total energy                  = -460.345700628944883
*** Psi4 exiting successfully. Buy a developer a beer!
