                               Psi4 1.4a3.dev88

  ==> Input File <==

--------------------------------------------------------------------------
# Any line starting with the # character is a comment line
memory 250000 mb
molecule molecule{
0 1
Cl         0.0000000000        0.0000000000       -0.0351730808
H          0.0000000000        0.0000000000        1.2371681191
}

set {
  reference rhf
  basis aug-cc-pV(6+d)Z
  scf_type OUT_OF_CORE
  freeze_core true
}

energy('ccsd(t)')
--------------------------------------------------------------------------

    Molecular point group: c2v

    Geometry (in Angstrom), charge = 0, multiplicity = 1:

       Center              X                  Y                   Z               Mass
    ------------   -----------------  -----------------  -----------------  -----------------
         CL           0.000000000000     0.000000000000    -0.035642460401    34.968852682000
         H            0.000000000000     0.000000000000     1.236698739499     1.007825032230

  Charge       = 0
  Multiplicity = 1
  Basis Set: AUG-CC-PV(6+D)Z
    Blend: AUG-CC-PV(6+D)Z

    Orbital Energies [Eh]
    ---------------------

    Doubly Occupied:

       1A1  -104.848746     2A1   -10.574139     3A1    -8.041302
       1B1    -8.039660     1B2    -8.039660     4A1    -1.117274
       5A1    -0.626480     2B1    -0.477082     2B2    -0.477082

  @RHF Final Energy:  -460.11282681237071

   => Energetics <=

    Nuclear Repulsion Energy =              7.0704403678015337
    One-Electron Energy =                -649.8836835658074733
    Two-Electron Energy =                 182.7004163856352079
    Total Energy =                       -460.1128268123707130

  Dipole Moment: [D]
     X:     0.0000      Y:     0.0000      Z:     1.1766     Total:     1.1766

      * MP2 total energy                      = -460.349402464459558
      * CCSD total energy                     = -460.364122125485494
      * CCSD(T) total energy                  = -460.374657865894221
*** Psi4 exiting successfully. Buy a developer a beer!
