                               Psi4 1.4a3.dev88

  ==> Input File <==

--------------------------------------------------------------------------
# Any line starting with the # character is a comment line
memory 250000 mb
molecule molecule{
0 1
Cl         0.0000000000        0.0000000000       -0.0351730808
H          0.0000000000        0.0000000000        1.2371681191
}

set {
  reference rhf
  basis aug-cc-pV(d+d)Z
  scf_type OUT_OF_CORE
  freeze_core true
}

energy('ccsd(t)')
--------------------------------------------------------------------------

    Molecular point group: c2v

    Geometry (in Angstrom), charge = 0, multiplicity = 1:

       Center              X                  Y                   Z               Mass
    ------------   -----------------  -----------------  -----------------  -----------------
         CL           0.000000000000     0.000000000000    -0.035642460401    34.968852682000
         H            0.000000000000     0.000000000000     1.236698739499     1.007825032230

  Charge       = 0
  Multiplicity = 1
  Basis Set: AUG-CC-PV(D+D)Z
    Blend: AUG-CC-PV(D+D)Z

    Orbital Energies [Eh]
    ---------------------

    Doubly Occupied:

       1A1  -104.850162     2A1   -10.575977     3A1    -8.043989
       1B1    -8.040408     1B2    -8.040408     4A1    -1.119449
       5A1    -0.628237     2B2    -0.477287     2B1    -0.477287

  @RHF Final Energy:  -460.09475658434570

   => Energetics <=

    Nuclear Repulsion Energy =              7.0704403678015337
    One-Electron Energy =                -649.8239878806452907
    Two-Electron Energy =                 182.6587909284980071
    Total Energy =                       -460.0947565843457596

  Dipole Moment: [D]
     X:     0.0000      Y:     0.0000      Z:     1.2108     Total:     1.2108

      * MP2 total energy                      = -460.257164275047330
      * CCSD total energy                     = -460.275160563136808
      * CCSD(T) total energy                  = -460.279503885203098
*** Psi4 exiting successfully. Buy a developer a beer!
