                               Psi4 1.2a1.dev938

  ==> Input File <==

--------------------------------------------------------------------------
# Any line starting with the # character is a comment line
memory 250000 mb
molecule molecule{
0 2
C          0.0000000000        0.0000000000        0.6422282651
N          0.0000000000        0.0000000000       -0.5507224180
}

set {
  reference uhf
  basis aug-cc-pv(q+d)z
  scf_type OUT_OF_CORE
  freeze_core true
}

energy('ccsd')
--------------------------------------------------------------------------

    Molecular point group: c2v

    Geometry (in Angstrom), charge = 0, multiplicity = 2:

       Center              X                  Y                   Z               Mass
    ------------   -----------------  -----------------  -----------------  -----------------
           C          0.000000000000     0.000000000000     0.642423149526    12.000000000000
           N          0.000000000000     0.000000000000    -0.550527533574    14.003074004780

  Charge       = 0
  Multiplicity = 2
  Basis Set: AUG-CC-PV(Q+D)Z
    Blend: AUG-CC-PV(Q+D)Z

    Orbital Energies (a.u.)
    -----------------------

    Alpha Occupied:

       1A1   -15.607215     2A1   -11.360907     3A1    -1.230400
       4A1    -0.745908     5A1    -0.564917     1B1    -0.515671
       1B2    -0.515671

    Alpha Virtual:

       6A1     0.057936     7A1     0.064057     2B2     0.069697
       2B1     0.069697     3B1     0.116169     3B2     0.116169
       8A1     0.128808     4B1     0.174511     4B2     0.174511
       9A1     0.216047     1A2     0.224000    10A1     0.224000
      11A1     0.279744     5B1     0.316739     5B2     0.316739
       6B1     0.368221     6B2     0.368221    12A1     0.378949
      13A1     0.399614     2A2     0.411617    14A1     0.411617
       7B1     0.478901     7B2     0.478901    15A1     0.560059
      16A1     0.720064     3A2     0.729967    17A1     0.729967
       8B2     0.747168     8B1     0.747168    18A1     0.775251
       9B1     0.780097     9B2     0.780097    10B1     0.820641
      10B2     0.820641     4A2     0.850191    19A1     0.850191
      20A1     0.892144    21A1     1.026519    11B1     1.055553
      11B2     1.055553    12B2     1.136799    12B1     1.136799
       5A2     1.169873    22A1     1.169873    13B2     1.245496
      13B1     1.245496    23A1     1.290786    24A1     1.388827
      14B1     1.516002    14B2     1.516002     6A2     1.533058
      25A1     1.533058    26A1     1.603221    15B1     1.823352
      15B2     1.823352    27A1     1.971586     7A2     2.099894
      28A1     2.099894    29A1     2.112153     8A2     2.112153
      30A1     2.195695    16B2     2.214961    16B1     2.214961
      17B2     2.232394    17B1     2.232394    31A1     2.289660
       9A2     2.289660    18B2     2.301490    18B1     2.301490
      32A1     2.405578    19B2     2.422749    19B1     2.422749
      33A1     2.603517    20B2     2.698759    20B1     2.698759
      10A2     2.732490    34A1     2.732490    35A1     2.972208
      11A2     2.972208    21B1     3.065436    21B2     3.065436
      36A1     3.102754    37A1     3.179964    22B2     3.218720
      22B1     3.218720    38A1     3.282272    12A2     3.282272
      23B1     3.360843    23B2     3.360843    39A1     3.435108
      24B2     3.565578    24B1     3.565578    13A2     3.595312
      40A1     3.595312    25B1     4.184074    25B2     4.184074
      41A1     4.297881    42A1     4.445367    14A2     4.448500
      43A1     4.448500    26B1     4.650928    26B2     4.650928
      44A1     5.076022    15A2     5.907693    45A1     5.907693
      27B1     5.993100    27B2     5.993100    28B1     6.054224
      28B2     6.054224    29B1     6.152158    29B2     6.152158
      46A1     6.172632    16A2     6.172632    47A1     6.313486
      30B2     6.444289    30B1     6.444289    17A2     6.478472
      48A1     6.478472    49A1     6.791097    50A1     6.897194
      18A2     6.897194    31B1     7.031799    31B2     7.031799
      51A1     7.482816    52A1     7.885124    32B1     7.991122
      32B2     7.991122    19A2     8.286443    53A1     8.286443
      33B2     8.585583    33B1     8.585583    34B1     8.785295
      34B2     8.785295    20A2     8.932076    54A1     8.932076
      55A1     9.070221    35B1     9.134034    35B2     9.134034
      36B2     9.241607    36B1     9.241607    21A2     9.781461
      56A1     9.781461    57A1     9.781881    22A2     9.925602
      58A1     9.925602    37B1    10.331138    37B2    10.331138
      59A1    11.512912    38B1    11.594403    38B2    11.594403
      60A1    11.981044    61A1    24.283102    62A1    32.372887

    Beta Occupied:

       1A1   -15.635900     2A1   -11.303151     3A1    -1.248241
       4A1    -0.623586     1B2    -0.538918     1B1    -0.538918

    Beta Virtual:

       5A1    -0.036451     6A1     0.063953     2B2     0.065919
       2B1     0.065919     7A1     0.084336     3B1     0.132587
       3B2     0.132587     8A1     0.138056     4B2     0.191269
       4B1     0.191269     9A1     0.220396     1A2     0.229327
      10A1     0.229327    11A1     0.287672     5B1     0.313286
       5B2     0.313286     6B1     0.388943     6B2     0.388943
      12A1     0.397554     2A2     0.407417    13A1     0.407417
      14A1     0.423712     7B2     0.508251     7B1     0.508251
      15A1     0.615003    16A1     0.742650     8B2     0.754875
       8B1     0.754875     9B1     0.773639     9B2     0.773639
      17A1     0.774858     3A2     0.774858    18A1     0.789864
      10B1     0.821951    10B2     0.821951    19A1     0.848458
       4A2     0.848458    20A1     0.914774    21A1     1.028547
      11B1     1.060392    11B2     1.060392    12B2     1.131459
      12B1     1.131459     5A2     1.156848    22A1     1.156848
      13B2     1.259080    13B1     1.259080    23A1     1.312006
      24A1     1.401399     6A2     1.506191    25A1     1.506191
      14B1     1.551092    14B2     1.551092    26A1     1.618914
      15B1     1.838554    15B2     1.838554    27A1     2.061316
       7A2     2.113462    28A1     2.113462    29A1     2.194982
       8A2     2.194982    30A1     2.250724    16B2     2.267382
      16B1     2.267382    17B1     2.270143    17B2     2.270143
      18B2     2.312359    18B1     2.312359    31A1     2.322327
       9A2     2.322327    19B2     2.430464    19B1     2.430464
      32A1     2.431170    33A1     2.612643    20B2     2.686412
      20B1     2.686412    10A2     2.737354    34A1     2.737354
      11A2     2.961958    35A1     2.961958    21B1     3.060630
      21B2     3.060630    36A1     3.097857    37A1     3.189275
      22B2     3.194087    22B1     3.194087    38A1     3.254808
      12A2     3.254808    23B1     3.360344    23B2     3.360344
      39A1     3.429092    13A2     3.551193    40A1     3.551193
      24B2     3.554956    24B1     3.554956    25B1     4.187367
      25B2     4.187367    41A1     4.303821    14A2     4.450555
      42A1     4.450555    43A1     4.470205    26B1     4.668472
      26B2     4.668472    44A1     5.084321    15A2     5.943084
      45A1     5.943084    27B1     6.023755    27B2     6.023755
      28B2     6.084949    28B1     6.084949    29B1     6.213860
      29B2     6.213860    46A1     6.225135    16A2     6.225135
      47A1     6.374657    30B1     6.500297    30B2     6.500297
      17A2     6.521740    48A1     6.521740    49A1     6.814613
      50A1     6.937610    18A2     6.937610    31B1     7.064734
      31B2     7.064734    51A1     7.515667    52A1     7.923334
      32B1     8.020424    32B2     8.020424    19A2     8.255252
      53A1     8.255252    33B2     8.566032    33B1     8.566032
      34B1     8.742145    34B2     8.742145    54A1     8.916801
      20A2     8.916801    55A1     9.063152    35B1     9.126436
      35B2     9.126436    36B2     9.192989    36B1     9.192989
      21A2     9.755122    56A1     9.755122    57A1     9.772448
      22A2     9.876612    58A1     9.876612    37B1    10.318305
      37B2    10.318305    59A1    11.516114    38B1    11.585233
      38B2    11.585233    60A1    11.987756    61A1    24.315416
      62A1    32.355487

    Final Occupation by Irrep:
             A1    A2    B1    B2
    DOCC [     4,    0,    1,    1 ]
    SOCC [     1,    0,    0,    0 ]

  Energy converged.

  @UHF Final Energy:   -92.23907937235199

   => Energetics <=

    Nuclear Repulsion Energy =             18.6306467447799200
    One-Electron Energy =                -161.3100502967776606
    Two-Electron Energy =                  50.4403241796457706
    PCM Polarization Energy =               0.0000000000000000
    Total Energy =                        -92.2390793723519806

    Alert: EFP and PCM quantities not currently incorporated into SCF psivars.
  UHF NO Occupations:
  HONO-2 :    1 B2 1.8686453
  HONO-1 :    1 B1 1.8686453
  HONO-0 :    5 A1 1.0000000
  LUNO+0 :    2 B2 0.1313547
  LUNO+1 :    2 B1 0.1313547
  LUNO+2 :    6 A1 0.0021031
  LUNO+3 :    7 A1 0.0006837

Properties will be evaluated at   0.000000,   0.000000,   0.000000 Bohr

Properties computed using the SCF density matrix

  Nuclear Dipole Moment: (a.u.)
     X:     0.0000      Y:     0.0000      Z:     0.0016

  Electronic Dipole Moment: (a.u.)
     X:     0.0000      Y:     0.0000      Z:     0.8400

  Dipole Moment: (a.u.)
     X:     0.0000      Y:     0.0000      Z:     0.8416     Total:     0.8416

  Dipole Moment: (Debye)
     X:     0.0000      Y:     0.0000      Z:     2.1390     Total:     2.1390

*** tstop() called on cqc05 at Thu Aug 20 20:42:15 2020
Module time:
	user time   =      17.18 seconds =       0.29 minutes
	system time =       1.03 seconds =       0.02 minutes
	total time  =         18 seconds =       0.30 minutes
Total time:
	user time   =      17.18 seconds =       0.29 minutes
	system time =       1.03 seconds =       0.02 minutes
	total time  =         18 seconds =       0.30 minutes

*** tstart() called on cqc05
*** at Thu Aug 20 20:42:15 2020

	Wfn Parameters:
	--------------------
	Wavefunction         = CCSD
	Number of irreps     = 4
	Number of MOs        = 160
	Number of active MOs = 158
	AO-Basis             = NONE
	Semicanonical        = false
	Reference            = UHF
	Print Level          = 1

	IRREP	# MOs	# FZDC	# DOCC	# SOCC	# VIRT	# FZVR
	-----	-----	------	------	------	------	------
	 A1	   62	    2	    2	    1	    57	    0
	 A2	   22	    0	    0	    0	    22	    0
	 B1	   38	    0	    1	    0	    37	    0
	 B2	   38	    0	    1	    0	    37	    0
	Transforming integrals...
	IWL integrals will be deleted.
	(OO|OO)...
	Presorting SO-basis two-electron integrals.
	Sorting File: SO Ints (nn|nn) nbuckets = 1
	Transforming the one-electron integrals and constructing Fock matrices
	Starting AA/AB first half-transformation.
	Sorting AA/AB half-transformed integrals.
	Starting BB first half-transformation.
	Sorting BB half-transformed integrals.
	First half integral transformation complete.
	Starting AA second half-transformation.
	Starting AB second half-transformation.
	Starting BB second half-transformation.
	Two-electron integral transformation complete.
	(OO|OV)...
	Starting AA second half-transformation.
	Starting AB second half-transformation.
	Starting BB second half-transformation.
	Two-electron integral transformation complete.
	(OO|VV)...
	Starting AA second half-transformation.
	Starting AB second half-transformation.
	Starting BB second half-transformation.
	Two-electron integral transformation complete.
	(OV|OO)...
	Starting AA/AB first half-transformation.
	Sorting AA/AB half-transformed integrals.
	Starting BB first half-transformation.
	Sorting BB half-transformed integrals.
	First half integral transformation complete.
	Starting AA second half-transformation.
	Starting AB second half-transformation.
	Starting BB second half-transformation.
	Two-electron integral transformation complete.
	(OV|OV)...
	Starting AA second half-transformation.
	Starting AB second half-transformation.
	Starting BB second half-transformation.
	Two-electron integral transformation complete.
	(OV|VV)...
	Starting AA second half-transformation.
	Starting AB second half-transformation.
	Starting BB second half-transformation.
	Two-electron integral transformation complete.
	(VV|OO)...
	Starting AA/AB first half-transformation.
	Sorting AA/AB half-transformed integrals.
	Starting BB first half-transformation.
	Sorting BB half-transformed integrals.
	First half integral transformation complete.
	Starting AA second half-transformation.
	Starting AB second half-transformation.
	Starting BB second half-transformation.
	Two-electron integral transformation complete.
	(VV|OV)...
	Starting AA second half-transformation.
	Starting AB second half-transformation.
	Starting BB second half-transformation.
	Two-electron integral transformation complete.
	(VV|VV)...
	Starting AA second half-transformation.
	Starting AB second half-transformation.
	Starting BB second half-transformation.
	Two-electron integral transformation complete.
	Frozen core energy     =    -86.85178278626947

	Size of irrep 0 of <AB|CD> integrals:      9.979 (MW) /     79.834 (MB)
	Size of irrep 1 of <AB|CD> integrals:      6.880 (MW) /     55.041 (MB)
	Size of irrep 2 of <AB|CD> integrals:      8.544 (MW) /     68.351 (MB)
	Size of irrep 3 of <AB|CD> integrals:      8.544 (MW) /     68.351 (MB)
	Total:                                    33.947 (MW) /    271.578 (MB)

	Size of irrep 0 of <ab|cd> integrals:     10.343 (MW) /     82.741 (MB)
	Size of irrep 1 of <ab|cd> integrals:      6.996 (MW) /     55.968 (MB)
	Size of irrep 2 of <ab|cd> integrals:      8.762 (MW) /     70.093 (MB)
	Size of irrep 3 of <ab|cd> integrals:      8.762 (MW) /     70.093 (MB)
	Total:                                    34.862 (MW) /    278.895 (MB)

	Size of irrep 0 of <Ab|Cd> integrals:     42.615 (MW) /    340.918 (MB)
	Size of irrep 1 of <Ab|Cd> integrals:     27.752 (MW) /    222.015 (MB)
	Size of irrep 2 of <Ab|Cd> integrals:     34.610 (MW) /    276.878 (MB)
	Size of irrep 3 of <Ab|Cd> integrals:     34.610 (MW) /    276.878 (MB)
	Total:                                   139.586 (MW) /   1116.688 (MB)

	Size of irrep 0 of <IA|BC> integrals:      1.585 (MW) /     12.683 (MB)
	Size of irrep 1 of <IA|BC> integrals:      0.734 (MW) /      5.876 (MB)
	Size of irrep 2 of <IA|BC> integrals:      1.111 (MW) /      8.886 (MB)
	Size of irrep 3 of <IA|BC> integrals:      1.111 (MW) /      8.886 (MB)
	Total:                                     4.541 (MW) /     36.331 (MB)

	Size of irrep 0 of <ia|bc> integrals:      1.251 (MW) /     10.011 (MB)
	Size of irrep 1 of <ia|bc> integrals:      0.624 (MW) /      4.994 (MB)
	Size of irrep 2 of <ia|bc> integrals:      0.912 (MW) /      7.293 (MB)
	Size of irrep 3 of <ia|bc> integrals:      0.912 (MW) /      7.293 (MB)
	Total:                                     3.699 (MW) /     29.591 (MB)

	Size of irrep 0 of <Ia|Bc> integrals:      1.619 (MW) /     12.952 (MB)
	Size of irrep 1 of <Ia|Bc> integrals:      0.738 (MW) /      5.900 (MB)
	Size of irrep 2 of <Ia|Bc> integrals:      1.124 (MW) /      8.989 (MB)
	Size of irrep 3 of <Ia|Bc> integrals:      1.124 (MW) /      8.989 (MB)
	Total:                                     4.604 (MW) /     36.830 (MB)

	Size of irrep 0 of <iA|bC> integrals:      1.227 (MW) /      9.818 (MB)
	Size of irrep 1 of <iA|bC> integrals:      0.622 (MW) /      4.973 (MB)
	Size of irrep 2 of <iA|bC> integrals:      0.900 (MW) /      7.201 (MB)
	Size of irrep 3 of <iA|bC> integrals:      0.900 (MW) /      7.201 (MB)
	Total:                                     3.649 (MW) /     29.193 (MB)

	Size of irrep 0 of tIjAb amplitudes:       0.052 (MW) /      0.418 (MB)
	Size of irrep 1 of tIjAb amplitudes:       0.011 (MW) /      0.084 (MB)
	Size of irrep 2 of tIjAb amplitudes:       0.029 (MW) /      0.235 (MB)
	Size of irrep 3 of tIjAb amplitudes:       0.029 (MW) /      0.235 (MB)
	Total:                                     0.122 (MW) /      0.973 (MB)

	Nuclear Rep. energy          =     18.63064674477992
	SCF energy                   =    -92.23907937235199
	One-electron energy          =    -41.51365752919860
	Two-electron (AA) energy     =      4.25274758015063
	Two-electron (BB) energy     =      3.04383458917914
	Two-electron (AB) energy     =     10.19913202900635
	Two-electron energy          =     17.49571419833613
	Reference energy             =    -92.23907937235202

*** tstop() called on cqc05 at Thu Aug 20 20:42:37 2020
Module time:
	user time   =      13.32 seconds =       0.22 minutes
	system time =       8.21 seconds =       0.14 minutes
	total time  =         22 seconds =       0.37 minutes
Total time:
	user time   =      30.50 seconds =       0.51 minutes
	system time =       9.24 seconds =       0.15 minutes
	total time  =         40 seconds =       0.67 minutes

*** tstart() called on cqc05
*** at Thu Aug 20 20:42:37 2020

            **************************
            *                        *
            *        CCENERGY        *
            *                        *
            **************************

    Nuclear Rep. energy (wfn)     =   18.630646744779920
    SCF energy          (wfn)     =  -92.239079372351995
    Reference energy    (file100) =  -92.239079372352023

    Input parameters:
    -----------------
    Wave function   =     CCSD
    Reference wfn   =     UHF
    Brueckner       =     No
    Memory (Mbytes) =     250000.0
    Maxiter         =     50
    R_Convergence   =     1.0e-07
    E_Convergence   =     1.0e-06
    Restart         =     Yes
    DIIS            =     Yes
    AO Basis        =     NONE
    ABCD            =     NEW
    Cache Level     =     2
    Cache Type      =     LRU
    Print Level     =     1
    Num. of threads =     4
    # Amps to Print =     10
    Print MP2 Amps? =     No
    Analyze T2 Amps =     No
    Print Pair Ener =     No
    Local CC        =     No
    SCS-MP2         =     False
    SCSN-MP2        =     False
    SCS-CCSD        =     False

MP2 correlation energy -0.2907822305306934
                Solving CC Amplitude Equations
                ------------------------------
  Iter             Energy              RMS        T1Diag      D1Diag    New D1Diag    D2Diag
  ----     ---------------------    ---------   ----------  ----------  ----------   --------
     0        -0.290782230530696    0.000e+00    0.000000    0.000000    0.000000    0.000000
     1        -0.289586250671485    1.233e-01    0.037905    0.000000    0.000000    0.000000
     2        -0.308837717609788    6.355e-02    0.056840    0.000000    0.000000    0.000000
     3        -0.325503174121934    5.511e-02    0.103889    0.000000    0.000000    0.000000
     4        -0.329075783052441    2.281e-02    0.125729    0.000000    0.000000    0.000000
     5        -0.329767908191142    1.270e-02    0.131018    0.000000    0.000000    0.000000
     6        -0.330672737592769    8.021e-03    0.134350    0.000000    0.000000    0.000000
     7        -0.330769228133067    4.428e-03    0.135922    0.000000    0.000000    0.000000
     8        -0.330890379116599    2.003e-03    0.136736    0.000000    0.000000    0.000000
     9        -0.330979991526566    9.359e-04    0.137133    0.000000    0.000000    0.000000
    10        -0.330976239048184    4.937e-04    0.137308    0.000000    0.000000    0.000000
    11        -0.330967007696107    2.020e-04    0.137271    0.000000    0.000000    0.000000
    12        -0.330958653400754    7.570e-05    0.137271    0.000000    0.000000    0.000000
    13        -0.330963628812095    3.362e-05    0.137290    0.000000    0.000000    0.000000
    14        -0.330965318473328    1.421e-05    0.137293    0.000000    0.000000    0.000000
    15        -0.330966054049068    3.715e-06    0.137296    0.000000    0.000000    0.000000
    16        -0.330966224381899    1.140e-06    0.137297    0.000000    0.000000    0.000000
    17        -0.330966239742443    4.993e-07    0.137297    0.000000    0.000000    0.000000
    18        -0.330966240020589    1.513e-07    0.137297    0.000000    0.000000    0.000000
    19        -0.330966239257718    6.791e-08    0.137297    0.000000    0.000000    0.000000
    19        -0.330966239257718    6.791e-08    0.137297    0.000000    0.000000    0.000000

      * MP2 total energy                      =  -92.529861602882718
      * CCSD total energy                     =  -92.570045611609743
*** Psi4 exiting successfully. Buy a developer a beer!
