                               Psi4 1.2a1.dev938

  ==> Input File <==

--------------------------------------------------------------------------
# Any line starting with the # character is a comment line
memory 250000 mb
molecule molecule{
0 2
C          0.0000000000        0.0000000000        0.6422282651
N          0.0000000000        0.0000000000       -0.5507224180
}

set {
  reference uhf
  basis aug-cc-pv(5+d)z
  scf_type OUT_OF_CORE
  freeze_core true
}

energy('ccsd')
--------------------------------------------------------------------------

    Molecular point group: c2v

    Geometry (in Angstrom), charge = 0, multiplicity = 2:

       Center              X                  Y                   Z               Mass
    ------------   -----------------  -----------------  -----------------  -----------------
           C          0.000000000000     0.000000000000     0.642423149526    12.000000000000
           N          0.000000000000     0.000000000000    -0.550527533574    14.003074004780

  Charge       = 0
  Multiplicity = 2
  Basis Set: AUG-CC-PV(5+D)Z
    Blend: AUG-CC-PV(5+D)Z

    Orbital Energies (a.u.)
    -----------------------

    Alpha Occupied:

       1A1   -15.606747     2A1   -11.360582     3A1    -1.230175
       4A1    -0.745852     5A1    -0.564886     1B1    -0.515685
       1B2    -0.515685

    Alpha Virtual:

       6A1     0.046762     7A1     0.054235     2B2     0.057163
       2B1     0.057163     3B2     0.099851     3B1     0.099851
       8A1     0.106603     4B2     0.159256     4B1     0.159256
       9A1     0.185983    10A1     0.201847     1A2     0.201847
      11A1     0.233231     5B2     0.257531     5B1     0.257531
      12A1     0.268103     6B1     0.276368     6B2     0.276368
      13A1     0.346432    14A1     0.353384     2A2     0.353384
       7B2     0.403154     7B1     0.403154    15A1     0.478008
       8B2     0.550831     8B1     0.550831    16A1     0.565779
       9B2     0.604501     9B1     0.604501    17A1     0.610018
      18A1     0.611374     3A2     0.611374    10B2     0.617224
      10B1     0.617224    19A1     0.662533     4A2     0.662533
      20A1     0.668425    11B2     0.805736    11B1     0.805736
      21A1     0.858857    12B1     0.890341    12B2     0.890341
      22A1     0.930807     5A2     0.930807    13B2     0.952772
      13B1     0.952772    23A1     1.022088    24A1     1.046086
      14B2     1.118288    14B1     1.118288    25A1     1.214381
       6A2     1.214381    26A1     1.217489    15B2     1.334720
      15B1     1.334720    27A1     1.334906    28A1     1.553435
       7A2     1.553435    16B1     1.605974    16B2     1.605974
      29A1     1.621139     8A2     1.621139    30A1     1.637306
      17B2     1.637380    17B1     1.637380    18B2     1.647256
      18B1     1.647256    31A1     1.675555     9A2     1.675555
      19B2     1.725301    19B1     1.725301    32A1     1.905733
      33A1     1.960995    20B2     1.983385    20B1     1.983385
      34A1     2.000382    35A1     2.056573    10A2     2.056573
      36A1     2.298922    11A2     2.298922    37A1     2.381075
      21B2     2.394256    21B1     2.394256    22B2     2.418139
      22B1     2.418139    38A1     2.477795    12A2     2.477795
      23B2     2.511190    23B1     2.511190    39A1     2.604123
      13A2     2.709527    40A1     2.709527    24B2     2.726774
      24B1     2.726774    25B2     2.776804    25B1     2.776804
      41A1     2.851449    26B2     3.165965    26B1     3.165965
      42A1     3.336782    14A2     3.336782    43A1     3.350880
      27B2     3.467941    27B1     3.467941    28B2     3.677040
      28B1     3.677040    44A1     3.691587    45A1     3.695013
      15A2     3.695013    16A2     3.951866    46A1     3.951866
      47A1     3.972262    29B1     3.996269    29B2     3.996269
      30B1     4.019553    30B2     4.019553    31B2     4.040849
      31B1     4.040849    48A1     4.042521    17A2     4.042521
      49A1     4.102695    32B2     4.140470    32B1     4.140470
      50A1     4.239276    18A2     4.239276    33B1     4.446485
      33B2     4.446485    51A1     4.457745    19A2     4.457745
      52A1     4.462110    34B2     4.509502    34B1     4.509502
      53A1     4.786128    35B2     4.841255    35B1     4.841255
      54A1     5.116723    36B2     5.238071    36B1     5.238071
      20A2     5.282942    55A1     5.282942    56A1     5.389510
      21A2     5.389510    37B2     5.593746    37B1     5.593746
      38B2     5.732937    38B1     5.732937    57A1     5.757375
      22A2     5.757375    58A1     5.789446    23A2     5.789446
      59A1     5.828714    39B2     5.939538    39B1     5.939538
      40B2     6.057207    40B1     6.057207    60A1     6.158258
      61A1     6.374216    24A2     6.374216    41B2     6.502585
      41B1     6.502585    42B2     6.653508    42B1     6.653508
      62A1     6.674800    25A2     6.812723    63A1     6.812723
      64A1     7.216855    43B2     7.914084    43B1     7.914084
      65A1     7.924771    66A1     8.130876    26A2     8.130876
      44B2     8.327002    44B1     8.327002    67A1     8.621579
      45B1     8.916322    45B2     8.916322    27A2     9.001296
      68A1     9.001296    46B2     9.220047    46B1     9.220047
      69A1     9.406636    47B1     9.455843    47B2     9.455843
      28A2     9.538780    70A1     9.538780    48B2     9.643669
      48B1     9.643669    49B2    10.179369    49B1    10.179369
      71A1    10.347938    29A2    10.347938    50B1    10.391145
      50B2    10.391145    30A2    10.495197    72A1    10.495197
      73A1    10.704325    74A1    10.841047    51B2    10.905599
      51B1    10.905599    75A1    11.405729    76A1    11.432680
      31A2    11.432680    52B2    11.838466    52B1    11.838466
      77A1    11.948810    78A1    12.375481    32A2    12.375481
      53B1    12.442901    53B2    12.442901    33A2    12.697587
      79A1    12.697587    54B2    12.989022    54B1    12.989022
      55B2    13.283950    55B1    13.283950    56B2    13.586423
      56B1    13.586423    80A1    13.703418    34A2    13.703418
      81A1    13.815512    82A1    14.242622    57B2    14.297839
      57B1    14.297839    83A1    14.705983    35A2    14.705983
      58B2    14.721133    58B1    14.721133    84A1    14.955803
      59B1    14.976116    59B2    14.976116    36A2    15.186181
      85A1    15.186181    37A2    15.795590    86A1    15.795590
      60B2    15.796271    60B1    15.796271    87A1    15.981363
      61B2    18.093550    61B1    18.093550    38A2    18.344942
      88A1    18.344942    89A1    19.175817    62B2    19.200534
      62B1    19.200534    90A1    20.309536    91A1    38.875850
      92A1    51.704835

    Beta Occupied:

       1A1   -15.635365     2A1   -11.302959     3A1    -1.248074
       4A1    -0.623576     1B2    -0.538964     1B1    -0.538964

    Beta Virtual:

       5A1    -0.036562     6A1     0.054153     2B2     0.054767
       2B1     0.054767     7A1     0.067819     3B2     0.108057
       3B1     0.108057     8A1     0.112736     4B2     0.173392
       4B1     0.173392     9A1     0.189633    10A1     0.205698
       1A2     0.205698    11A1     0.241856     5B1     0.259524
       5B2     0.259524    12A1     0.301960     6B2     0.301993
       6B1     0.301993    13A1     0.347134    14A1     0.350929
       2A2     0.350929     7B2     0.418235     7B1     0.418235
      15A1     0.497236     8B2     0.554595     8B1     0.554595
       9B2     0.587001     9B1     0.587001    16A1     0.594003
      17A1     0.620026    10B2     0.626114    10B1     0.626114
      18A1     0.631162     3A2     0.631162    19A1     0.675151
       4A2     0.675151    20A1     0.702776    11B2     0.820325
      11B1     0.820325    21A1     0.859819    12B2     0.887467
      12B1     0.887467    22A1     0.923732     5A2     0.923732
      13B2     0.969903    13B1     0.969903    23A1     1.028875
      24A1     1.082932    14B2     1.148737    14B1     1.148737
      25A1     1.192213     6A2     1.192213    26A1     1.240318
      15B2     1.326903    15B1     1.326903    27A1     1.382231
      28A1     1.561174     7A2     1.561174    16B2     1.631284
      16B1     1.631284    17B2     1.635742    17B1     1.635742
      29A1     1.663528    18B2     1.670786    18B1     1.670786
      30A1     1.672725     8A2     1.672725    31A1     1.711069
       9A2     1.711069    19B2     1.730305    19B1     1.730305
      32A1     1.904885    33A1     1.971396    20B2     1.990939
      20B1     1.990939    34A1     2.027425    35A1     2.057399
      10A2     2.057399    36A1     2.293157    11A2     2.293157
      21B2     2.378973    21B1     2.378973    37A1     2.410142
      22B2     2.421066    22B1     2.421066    38A1     2.447843
      12A2     2.447843    23B2     2.530946    23B1     2.530946
      39A1     2.611626    13A2     2.687865    40A1     2.687865
      24B2     2.748466    24B1     2.748466    25B2     2.768541
      25B1     2.768541    41A1     2.870834    26B2     3.185409
      26B1     3.185409    42A1     3.351881    14A2     3.351881
      43A1     3.363665    27B2     3.479538    27B1     3.479538
      28B2     3.703401    28B1     3.703401    44A1     3.704948
      15A2     3.704948    45A1     3.711950    16A2     3.986689
      46A1     3.986689    47A1     3.999074    29B2     4.019721
      29B1     4.019721    30B2     4.051692    30B1     4.051692
      31B1     4.065739    31B2     4.065739    17A2     4.067885
      48A1     4.067885    49A1     4.125135    32B2     4.134464
      32B1     4.134464    50A1     4.261368    18A2     4.261368
      33B1     4.456401    33B2     4.456401    51A1     4.474998
      52A1     4.486524    19A2     4.486524    34B2     4.503228
      34B1     4.503228    53A1     4.819652    35B2     4.831821
      35B1     4.831821    54A1     5.144028    36B2     5.268664
      36B1     5.268664    20A2     5.289319    55A1     5.289319
      56A1     5.385233    21A2     5.385233    37B2     5.591757
      37B1     5.591757    38B2     5.716235    38B1     5.716235
      57A1     5.735386    22A2     5.735386    23A2     5.783620
      58A1     5.783620    59A1     5.829788    39B2     5.938878
      39B1     5.938878    40B2     6.025751    40B1     6.025751
      60A1     6.158079    61A1     6.366047    24A2     6.366047
      41B2     6.521909    41B1     6.521909    42B2     6.649316
      42B1     6.649316    62A1     6.690028    25A2     6.792205
      63A1     6.792205    64A1     7.218861    43B2     7.907831
      43B1     7.907831    65A1     7.943572    66A1     8.116189
      26A2     8.116189    44B2     8.340566    44B1     8.340566
      67A1     8.638652    45B1     8.941649    45B2     8.941649
      27A2     9.024772    68A1     9.024772    46B2     9.256439
      46B1     9.256439    69A1     9.441033    47B1     9.478260
      47B2     9.478260    28A2     9.572083    70A1     9.572083
      48B2     9.663846    48B1     9.663846    49B2    10.222833
      49B1    10.222833    29A2    10.384280    71A1    10.384280
      50B1    10.424024    50B2    10.424024    30A2    10.519098
      72A1    10.519098    73A1    10.714841    74A1    10.865234
      51B2    10.924446    51B1    10.924446    75A1    11.423660
      31A2    11.465143    76A1    11.465143    52B2    11.865719
      52B1    11.865719    77A1    11.969884    78A1    12.406838
      32A2    12.406838    53B2    12.420603    53B1    12.420603
      33A2    12.681333    79A1    12.681333    54B2    12.964987
      54B1    12.964987    55B2    13.274222    55B1    13.274222
      56B2    13.600327    56B1    13.600327    80A1    13.697830
      34A2    13.697830    81A1    13.813551    82A1    14.255257
      57B2    14.301457    57B1    14.301457    83A1    14.673627
      35A2    14.673627    58B2    14.682381    58B1    14.682381
      84A1    14.947907    59B1    14.953145    59B2    14.953145
      36A2    15.170497    85A1    15.170497    37A2    15.776859
      86A1    15.776859    60B2    15.787271    60B1    15.787271
      87A1    15.978209    61B2    18.090381    61B1    18.090381
      38A2    18.311030    88A1    18.311030    89A1    19.180505
      62B2    19.184933    62B1    19.184933    90A1    20.306904
      91A1    38.901372    92A1    51.694691

    Final Occupation by Irrep:
             A1    A2    B1    B2
    DOCC [     4,    0,    1,    1 ]
    SOCC [     1,    0,    0,    0 ]

  Energy converged.

  @UHF Final Energy:   -92.24016728544491

   => Energetics <=

    Nuclear Repulsion Energy =             18.6306467447799200
    One-Electron Energy =                -161.3141151334739902
    Two-Electron Energy =                  50.4433011032491692
    Total Energy =                        -92.2401672854449117

  UHF NO Occupations:
  HONO-2 :    1 B1 1.8684015
  HONO-1 :    1 B2 1.8684015
  HONO-0 :    5 A1 1.0000000
  LUNO+0 :    2 B2 0.1315985
  LUNO+1 :    2 B1 0.1315985
  LUNO+2 :    6 A1 0.0021065
  LUNO+3 :    7 A1 0.0006845

Properties will be evaluated at   0.000000,   0.000000,   0.000000 Bohr

Properties computed using the SCF density matrix

  Nuclear Dipole Moment: (a.u.)
     X:     0.0000      Y:     0.0000      Z:     0.0016

  Electronic Dipole Moment: (a.u.)
     X:     0.0000      Y:     0.0000      Z:     0.8399

  Dipole Moment: (a.u.)
     X:     0.0000      Y:     0.0000      Z:     0.8415     Total:     0.8415

  Dipole Moment: (Debye)
     X:     0.0000      Y:     0.0000      Z:     2.1389     Total:     2.1389

*** tstop() called on cqc05 at Fri Aug 21 01:58:08 2020
Module time:
	user time   =     116.06 seconds =       1.93 minutes
	system time =       7.20 seconds =       0.12 minutes
	total time  =        123 seconds =       2.05 minutes
Total time:
	user time   =     116.06 seconds =       1.93 minutes
	system time =       7.20 seconds =       0.12 minutes
	total time  =        123 seconds =       2.05 minutes

*** tstart() called on cqc05
*** at Fri Aug 21 01:58:08 2020

	Wfn Parameters:
	--------------------
	Wavefunction         = CCSD
	Number of irreps     = 4
	Number of MOs        = 254
	Number of active MOs = 252
	AO-Basis             = NONE
	Semicanonical        = false
	Reference            = UHF
	Print Level          = 1

	IRREP	# MOs	# FZDC	# DOCC	# SOCC	# VIRT	# FZVR
	-----	-----	------	------	------	------	------
	 A1	   92	    2	    2	    1	    87	    0
	 A2	   38	    0	    0	    0	    38	    0
	 B1	   62	    0	    1	    0	    61	    0
	 B2	   62	    0	    1	    0	    61	    0
	Transforming integrals...
	IWL integrals will be deleted.
	(OO|OO)...
	Presorting SO-basis two-electron integrals.
	Sorting File: SO Ints (nn|nn) nbuckets = 1
	Transforming the one-electron integrals and constructing Fock matrices
	Starting AA/AB first half-transformation.
	Sorting AA/AB half-transformed integrals.
	Starting BB first half-transformation.
	Sorting BB half-transformed integrals.
	First half integral transformation complete.
	Starting AA second half-transformation.
	Starting AB second half-transformation.
	Starting BB second half-transformation.
	Two-electron integral transformation complete.
	(OO|OV)...
	Starting AA second half-transformation.
	Starting AB second half-transformation.
	Starting BB second half-transformation.
	Two-electron integral transformation complete.
	(OO|VV)...
	Starting AA second half-transformation.
	Starting AB second half-transformation.
	Starting BB second half-transformation.
	Two-electron integral transformation complete.
	(OV|OO)...
	Starting AA/AB first half-transformation.
	Sorting AA/AB half-transformed integrals.
	Starting BB first half-transformation.
	Sorting BB half-transformed integrals.
	First half integral transformation complete.
	Starting AA second half-transformation.
	Starting AB second half-transformation.
	Starting BB second half-transformation.
	Two-electron integral transformation complete.
	(OV|OV)...
	Starting AA second half-transformation.
	Starting AB second half-transformation.
	Starting BB second half-transformation.
	Two-electron integral transformation complete.
	(OV|VV)...
	Starting AA second half-transformation.
	Starting AB second half-transformation.
	Starting BB second half-transformation.
	Two-electron integral transformation complete.
	(VV|OO)...
	Starting AA/AB first half-transformation.
	Sorting AA/AB half-transformed integrals.
	Starting BB first half-transformation.
	Sorting BB half-transformed integrals.
	First half integral transformation complete.
	Starting AA second half-transformation.
	Starting AB second half-transformation.
	Starting BB second half-transformation.
	Two-electron integral transformation complete.
	(VV|OV)...
	Starting AA second half-transformation.
	Starting AB second half-transformation.
	Starting BB second half-transformation.
	Two-electron integral transformation complete.
	(VV|VV)...
	Starting AA second half-transformation.
	Starting AB second half-transformation.
	Starting BB second half-transformation.
	Two-electron integral transformation complete.
	Frozen core energy     =    -86.85194075462128

	Size of irrep 0 of <AB|CD> integrals:     65.675 (MW) /    525.399 (MB)
	Size of irrep 1 of <AB|CD> integrals:     49.379 (MW) /    395.030 (MB)
	Size of irrep 2 of <AB|CD> integrals:     58.141 (MW) /    465.125 (MB)
	Size of irrep 3 of <AB|CD> integrals:     58.141 (MW) /    465.125 (MB)
	Total:                                   231.335 (MW) /   1850.678 (MB)

	Size of irrep 0 of <ab|cd> integrals:     67.092 (MW) /    536.740 (MB)
	Size of irrep 1 of <ab|cd> integrals:     49.914 (MW) /    399.314 (MB)
	Size of irrep 2 of <ab|cd> integrals:     59.075 (MW) /    472.597 (MB)
	Size of irrep 3 of <ab|cd> integrals:     59.075 (MW) /    472.597 (MB)
	Total:                                   235.156 (MW) /   1881.247 (MB)

	Size of irrep 0 of <Ab|Cd> integrals:    273.638 (MW) /   2189.102 (MB)
	Size of irrep 1 of <Ab|Cd> integrals:    198.584 (MW) /   1588.676 (MB)
	Size of irrep 2 of <Ab|Cd> integrals:    234.427 (MW) /   1875.414 (MB)
	Size of irrep 3 of <Ab|Cd> integrals:    234.427 (MW) /   1875.414 (MB)
	Total:                                   941.076 (MW) /   7528.605 (MB)

	Size of irrep 0 of <IA|BC> integrals:      6.302 (MW) /     50.418 (MB)
	Size of irrep 1 of <IA|BC> integrals:      3.317 (MW) /     26.534 (MB)
	Size of irrep 2 of <IA|BC> integrals:      4.697 (MW) /     37.576 (MB)
	Size of irrep 3 of <IA|BC> integrals:      4.697 (MW) /     37.576 (MB)
	Total:                                    19.013 (MW) /    152.104 (MB)

	Size of irrep 0 of <ia|bc> integrals:      4.956 (MW) /     39.646 (MB)
	Size of irrep 1 of <ia|bc> integrals:      2.798 (MW) /     22.382 (MB)
	Size of irrep 2 of <ia|bc> integrals:      3.812 (MW) /     30.498 (MB)
	Size of irrep 3 of <ia|bc> integrals:      3.812 (MW) /     30.498 (MB)
	Total:                                    15.378 (MW) /    123.024 (MB)

	Size of irrep 0 of <Ia|Bc> integrals:      6.385 (MW) /     51.082 (MB)
	Size of irrep 1 of <Ia|Bc> integrals:      3.326 (MW) /     26.606 (MB)
	Size of irrep 2 of <Ia|Bc> integrals:      4.731 (MW) /     37.849 (MB)
	Size of irrep 3 of <Ia|Bc> integrals:      4.731 (MW) /     37.849 (MB)
	Total:                                    19.173 (MW) /    153.385 (MB)

	Size of irrep 0 of <iA|bC> integrals:      4.896 (MW) /     39.171 (MB)
	Size of irrep 1 of <iA|bC> integrals:      2.790 (MW) /     22.322 (MB)
	Size of irrep 2 of <iA|bC> integrals:      3.782 (MW) /     30.255 (MB)
	Size of irrep 3 of <iA|bC> integrals:      3.782 (MW) /     30.255 (MB)
	Total:                                    15.250 (MW) /    122.002 (MB)

	Size of irrep 0 of tIjAb amplitudes:       0.132 (MW) /      1.059 (MB)
	Size of irrep 1 of tIjAb amplitudes:       0.028 (MW) /      0.225 (MB)
	Size of irrep 2 of tIjAb amplitudes:       0.077 (MW) /      0.612 (MB)
	Size of irrep 3 of tIjAb amplitudes:       0.077 (MW) /      0.612 (MB)
	Total:                                     0.314 (MW) /      2.509 (MB)

	Nuclear Rep. energy          =     18.63064674477992
	SCF energy                   =    -92.24016728544491
	One-electron energy          =    -41.51588608674120
	Two-electron (AA) energy     =      4.25306009795115
	Two-electron (BB) energy     =      3.04440689126098
	Two-electron (AB) energy     =     10.19954582192507
	Two-electron energy          =     17.49701281113720
	Reference energy             =    -92.24016728544538

*** tstop() called on cqc05 at Fri Aug 21 02:02:35 2020
Module time:
	user time   =     107.41 seconds =       1.79 minutes
	system time =      52.75 seconds =       0.88 minutes
	total time  =        267 seconds =       4.45 minutes
Total time:
	user time   =     223.47 seconds =       3.72 minutes
	system time =      59.95 seconds =       1.00 minutes
	total time  =        390 seconds =       6.50 minutes

*** tstart() called on cqc05
*** at Fri Aug 21 02:02:35 2020

            **************************

      * MP2 total energy                      =  -92.537616096320349
      * CCSD total energy                     =  -92.575871842358112
*** Psi4 exiting successfully. Buy a developer a beer!
