                               Psi4 1.2a1.dev938

  ==> Input File <==

--------------------------------------------------------------------------
# Any line starting with the # character is a comment line
memory 250000 mb
molecule molecule{
0 2
B          0.0000000000        0.0000000000        0.0000000000
}

set {
  reference uhf
  basis aug-cc-pv(6+d)z
  scf_type OUT_OF_CORE
  freeze_core true
}

energy('ccsd')
--------------------------------------------------------------------------

    Molecular point group: d2h
    Geometry (in Angstrom), charge = 0, multiplicity = 2:

       Center              X                  Y                   Z               Mass
    ------------   -----------------  -----------------  -----------------  -----------------
           B          0.000000000000     0.000000000000     0.000000000000    11.009305406000

  Charge       = 0
  Multiplicity = 2
  Basis Set: AUG-CC-PV(6+D)Z
    Blend: AUG-CC-PV(6+D)Z

    Orbital Energies (a.u.)
    -----------------------

    Alpha Occupied:

       1Ag    -7.701208     2Ag    -0.545232     1B2u   -0.318860

    Alpha Virtual:

       1B1u    0.020017     1B3u    0.020017     2B2u    0.033498
       3Ag     0.041916     2B1u    0.053837     2B3u    0.053837
       1B2g    0.119498     4Ag     0.119498     1B1g    0.121437
       1B3g    0.121437     5Ag     0.122263     3B2u    0.147716
       3B3u    0.175516     3B1u    0.175516     6Ag     0.227060
       4B1u    0.294298     4B3u    0.294298     1Au     0.297950
       4B2u    0.297950     5B3u    0.300179     5B1u    0.300179
       5B2u    0.300927     7Ag     0.377461     2B3g    0.377937
       2B1g    0.377937     2B2g    0.381761     8Ag     0.381761
       6B2u    0.455622     6B3u    0.484622     6B1u    0.484622
       9Ag     0.779229    10Ag     0.801212     3B2g    0.801212
       3B3g    0.807318     3B1g    0.807318     4B2g    0.811728
      11Ag     0.811728     4B1g    0.814379     4B3g    0.814379
      12Ag     0.815264     7B3u    0.856429     7B1u    0.856429
       2Au     0.862828     7B2u    0.862828     8B3u    0.866604
       8B1u    0.866604     8B2u    0.867854    13Ag     0.935573
       5B1g    0.936996     5B3g    0.936996     5B2g    0.944555
      14Ag     0.944555     9B2u    1.187521     9B3u    1.201480
       9B1u    1.201480    10B1u    1.679049    10B3u    1.679049
       3Au     1.687161    10B2u    1.687161    11B1u    1.693549
      11B3u    1.693549     4Au     1.698155    11B2u    1.698155
      12B3u    1.700936    12B1u    1.700936    12B2u    1.701865
      13B1u    1.981515    13B3u    1.981515     5Au     1.991757
      13B2u    1.991757    14B3u    1.997854    14B1u    1.997854
      14B2u    1.999880    15Ag     2.136435     6B2g    2.136435
       6B3g    2.147710     6B1g    2.147710     7B2g    2.155600
      16Ag     2.155600     7B1g    2.160199     7B3g    2.160199
      17Ag     2.161702    18Ag     2.199328     8B2g    2.199328
       8B1g    2.202461     8B3g    2.202461    19Ag     2.203367
      20Ag     2.306425    15B3u    2.907758    15B1u    2.907758
      15B2u    2.914062    21Ag     3.432668     9B2g    3.432668
       9B1g    3.443110     9B3g    3.443110    10B2g    3.451755
      22Ag     3.451755    10B3g    3.458542    10B1g    3.458542
      11B2g    3.463424    23Ag     3.463424    11B1g    3.466368
      11B3g    3.466368    24Ag     3.467351    16B1u    4.089758
      16B3u    4.089758     6Au     4.103405    16B2u    4.103405
      17B1u    4.114129    17B3u    4.114129    17B2u    4.121848
       7Au     4.121848    18B3u    4.126503    18B1u    4.126503
      18B2u    4.128059    19B1u    4.297117    19B3u    4.297117
       8Au     4.313339    19B2u    4.313339    20B3u    4.323146
      20B1u    4.323146    20B2u    4.326428    25Ag     4.846266
      12B2g    4.846266    12B3g    4.862767    12B1g    4.862767
      26Ag     4.874550    13B2g    4.874550    13B1g    4.881617
      13B3g    4.881617    27Ag     4.883972    28Ag     5.165915
      14B2g    5.165915    14B1g    5.181361    14B3g    5.181361
      29Ag     5.186654    30Ag     7.181522    31Ag     8.177668
      15B2g    8.177668    15B1g    8.192904    15B3g    8.192904
      16B2g    8.205478    32Ag     8.205478    16B3g    8.215326
      16B1g    8.215326    33Ag     8.222397    17B2g    8.222397
      17B1g    8.226654    17B3g    8.226654    34Ag     8.228076
      21B3u    8.435594    21B1u    8.435594    21B2u    8.449529
      22B1u    9.373309    22B3u    9.373309    22B2u    9.392260
       9Au     9.392260    23B3u    9.403756    23B1u    9.403756
      23B2u    9.407612    24B1u    9.519465    24B3u    9.519465
      24B2u    9.536938    10Au     9.536938    25B1u    9.550653
      25B3u    9.550653    25B2u    9.560517    11Au     9.560517
      26B3u    9.566465    26B1u    9.566465    26B2u    9.568452
      35Ag    10.782706    18B2g   10.782706    18B3g   10.801485
      18B1g   10.801485    36Ag    10.814979    19B2g   10.814979
      19B1g   10.823106    19B3g   10.823106    37Ag    10.825821
      38Ag    12.452686    20B2g   12.452686    20B1g   12.471324
      20B3g   12.471324    39Ag    12.477651    40Ag    35.675014

    Beta Occupied:

       1Ag    -7.686192     2Ag    -0.446144

    Beta Virtual:

       1B1u    0.022367     1B3u    0.022367     1B2u    0.029152
       3Ag     0.044265     2B3u    0.060037     2B1u    0.060037
       2B2u    0.087425     4Ag     0.119541     1B2g    0.119541
       1B1g    0.123857     1B3g    0.123857     5Ag     0.125410
       3B3u    0.181410     3B1u    0.181410     3B2u    0.208045
       6Ag     0.237204     4B1u    0.294276     4B3u    0.294276
       1Au     0.299314     4B2u    0.299314     5B3u    0.302436
       5B1u    0.302436     5B2u    0.303522     7Ag     0.382257
       2B2g    0.382257     2B1g    0.397773     2B3g    0.397773
       8Ag     0.403574     6B3u    0.491390     6B1u    0.491390
       6B2u    0.521090     9Ag     0.798053    10Ag     0.801046
       3B2g    0.801046     3B3g    0.809324     3B1g    0.809324
       4B2g    0.815409    11Ag     0.815409     4B1g    0.819137
       4B3g    0.819137    12Ag     0.820395     7B3u    0.856384
       7B1u    0.856384     7B2u    0.870938     2Au     0.870938
       8B3u    0.879843     8B1u    0.879843     8B2u    0.882880
       5B2g    0.947207    13Ag     0.947207     5B1g    0.976227
       5B3g    0.976227    14Ag     0.987033     9B3u    1.208936
       9B1u    1.208936     9B2u    1.248200    10B1u    1.678743
      10B3u    1.678743     3Au     1.689156    10B2u    1.689156
      11B1u    1.697398    11B3u    1.697398     4Au     1.703365
      11B2u    1.703365    12B3u    1.706979    12B1u    1.706979
      12B2u    1.708190    13B3u    1.982448    13B1u    1.982448
      13B2u    2.007170     5Au     2.007170    14B3u    2.022318
      14B1u    2.022318    14B2u    2.027440    15Ag     2.136294
       6B2g    2.136294     6B1g    2.154208     6B3g    2.154208
      16Ag     2.167276     7B2g    2.167276     7B1g    2.175262
       7B3g    2.175262    17Ag     2.177947     8B2g    2.203778
      18Ag     2.203778     8B1g    2.240554     8B3g    2.240554
      19Ag     2.253762    20Ag     2.326191    15B3u    2.915218
      15B1u    2.915218    15B2u    2.961767    21Ag     3.432263
       9B2g    3.432263     9B1g    3.445173     9B3g    3.445173
      10B2g    3.455897    22Ag     3.455897    10B3g    3.464342
      10B1g    3.464342    11B2g    3.470431    23Ag     3.470431
      11B1g    3.474108    11B3g    3.474108    24Ag     3.475337
      16B1u    4.089615    16B3u    4.089615     6Au     4.108063
      16B2u    4.108063    17B1u    4.122600    17B3u    4.122600
      17B2u    4.133093     7Au     4.133093    18B3u    4.139434
      18B1u    4.139434    18B2u    4.141556    19B3u    4.299302
      19B1u    4.299302    19B2u    4.330261     8Au     4.330261
      20B3u    4.349210    20B1u    4.349210    20B2u    4.355599
      25Ag     4.847015    12B2g    4.847015    12B3g    4.872186
      12B1g    4.872186    26Ag     4.890338    13B2g    4.890338
      13B1g    4.901321    13B3g    4.901321    27Ag     4.905000
      28Ag     5.170367    14B2g    5.170367    14B1g    5.208699
      14B3g    5.208699    29Ag     5.222054    30Ag     7.195137
      31Ag     8.177658    15B2g    8.177658    15B1g    8.196614
      15B3g    8.196614    32Ag     8.212286    16B2g    8.212286
      16B3g    8.224577    16B1g    8.224577    33Ag     8.233413
      17B2g    8.233413    17B1g    8.238737    17B3g    8.238737
      34Ag     8.240516    21B3u    8.440486    21B1u    8.440486
      21B2u    8.476748    22B1u    9.375594    22B3u    9.375594
      22B2u    9.405471     9Au     9.405471    23B3u    9.423672
      23B1u    9.423672    23B2u    9.429794    24B1u    9.520087
      24B3u    9.520087    24B2u    9.543084    10Au     9.543084
      25B1u    9.561211    25B3u    9.561211    25B2u    9.574307
      11Au     9.574307    26B3u    9.582234    26B1u    9.582234
      26B2u    9.584888    35Ag    10.784107    18B2g   10.784107
      18B3g   10.810275    18B1g   10.810275    36Ag    10.829122
      19B2g   10.829122    19B1g   10.840494    19B3g   10.840494
      37Ag    10.844295    38Ag    12.455557    20B2g   12.455557
      20B1g   12.486615    20B3g   12.486615    39Ag    12.497219
      40Ag    35.679493

    Final Occupation by Irrep:
             Ag   B1g   B2g   B3g    Au   B1u   B2u   B3u
    DOCC [     2,    0,    0,    0,    0,    0,    0,    0 ]
    SOCC [     0,    0,    0,    0,    0,    0,    1,    0 ]

  Energy converged.

  @UHF Final Energy:   -24.53315319613273

   => Energetics <=

    Nuclear Repulsion Energy =              0.0000000000000000
    One-Electron Energy =                 -32.3686704839509218
    Two-Electron Energy =                   7.8355172878181891
    PCM Polarization Energy =               0.0000000000000000
    Total Energy =                        -24.5331531961327336

    Alert: EFP and PCM quantities not currently incorporated into SCF psivars.
  UHF NO Occupations:
  HONO-2 :    1 Ag 1.9999978
  HONO-1 :    2 Ag 1.9943127
  HONO-0 :    1B2u 1.0000000
  LUNO+0 :    3 Ag 0.0056873
  LUNO+1 :    4 Ag 0.0000022
  LUNO+2 :    2B2u 0.0000000
  LUNO+3 :    5 Ag 0.0000000

Properties will be evaluated at   0.000000,   0.000000,   0.000000 Bohr

Properties computed using the SCF density matrix

  Nuclear Dipole Moment: (a.u.)
     X:     0.0000      Y:     0.0000      Z:     0.0000

  Electronic Dipole Moment: (a.u.)
     X:     0.0000      Y:     0.0000      Z:     0.0000

  Dipole Moment: (a.u.)
     X:     0.0000      Y:     0.0000      Z:     0.0000     Total:     0.0000

  Dipole Moment: (Debye)
     X:     0.0000      Y:     0.0000      Z:     0.0000     Total:     0.0000

*** tstop() called on cqc05 at Wed Aug 26 09:17:33 2020
Module time:
	user time   =      38.78 seconds =       0.65 minutes
	system time =       0.77 seconds =       0.01 minutes
	total time  =         39 seconds =       0.65 minutes
Total time:
	user time   =      38.78 seconds =       0.65 minutes
	system time =       0.77 seconds =       0.01 minutes
	total time  =         39 seconds =       0.65 minutes

*** tstart() called on cqc05
*** at Wed Aug 26 09:17:33 2020

	Wfn Parameters:
	--------------------
	Wavefunction         = CCSD
	Number of irreps     = 8
	Number of MOs        = 189
	Number of active MOs = 188
	AO-Basis             = NONE
	Semicanonical        = false
	Reference            = UHF
	Print Level          = 1

	IRREP	# MOs	# FZDC	# DOCC	# SOCC	# VIRT	# FZVR
	-----	-----	------	------	------	------	------
	 Ag	   40	    1	    1	    0	    38	    0
	 B1g	   20	    0	    0	    0	    20	    0
	 B2g	   20	    0	    0	    0	    20	    0
	 B3g	   20	    0	    0	    0	    20	    0
	 Au	   11	    0	    0	    0	    11	    0
	 B1u	   26	    0	    0	    0	    26	    0
	 B2u	   26	    0	    0	    1	    25	    0
	 B3u	   26	    0	    0	    0	    26	    0
	Transforming integrals...
	IWL integrals will be deleted.
	(OO|OO)...
	Presorting SO-basis two-electron integrals.
	Sorting File: SO Ints (nn|nn) nbuckets = 1
	Transforming the one-electron integrals and constructing Fock matrices
	Starting AA/AB first half-transformation.
	Sorting AA/AB half-transformed integrals.
	Starting BB first half-transformation.
	Sorting BB half-transformed integrals.
	First half integral transformation complete.
	Starting AA second half-transformation.
	Starting AB second half-transformation.
	Starting BB second half-transformation.
	Two-electron integral transformation complete.
	(OO|OV)...
	Starting AA second half-transformation.
	Starting AB second half-transformation.
	Starting BB second half-transformation.
	Two-electron integral transformation complete.
	(OO|VV)...
	Starting AA second half-transformation.
	Starting AB second half-transformation.
	Starting BB second half-transformation.
	Two-electron integral transformation complete.
	(OV|OO)...
	Starting AA/AB first half-transformation.
	Sorting AA/AB half-transformed integrals.
	Starting BB first half-transformation.
	Sorting BB half-transformed integrals.
	First half integral transformation complete.
	Starting AA second half-transformation.
	Starting AB second half-transformation.
	Starting BB second half-transformation.
	Two-electron integral transformation complete.
	(OV|OV)...
	Starting AA second half-transformation.
	Starting AB second half-transformation.
	Starting BB second half-transformation.
	Two-electron integral transformation complete.
	(OV|VV)...
	Starting AA second half-transformation.
	Starting AB second half-transformation.
	Starting BB second half-transformation.
	Two-electron integral transformation complete.
	(VV|OO)...
	Starting AA/AB first half-transformation.
	Sorting AA/AB half-transformed integrals.
	Starting BB first half-transformation.
	Sorting BB half-transformed integrals.
	First half integral transformation complete.
	Starting AA second half-transformation.
	Starting AB second half-transformation.
	Starting BB second half-transformation.
	Two-electron integral transformation complete.
	(VV|OV)...
	Starting AA second half-transformation.
	Starting AB second half-transformation.
	Starting BB second half-transformation.
	Two-electron integral transformation complete.
	(VV|VV)...
	Starting AA second half-transformation.
	Starting AB second half-transformation.
	Starting BB second half-transformation.
	Two-electron integral transformation complete.
	Frozen core energy     =    -21.98585899739098

	Size of irrep 0 of <AB|CD> integrals:      5.189 (MW) /     41.514 (MB)
	Size of irrep 1 of <AB|CD> integrals:      4.393 (MW) /     35.146 (MB)
	Size of irrep 2 of <AB|CD> integrals:      4.456 (MW) /     35.651 (MB)
	Size of irrep 3 of <AB|CD> integrals:      4.393 (MW) /     35.146 (MB)
	Size of irrep 4 of <AB|CD> integrals:      3.834 (MW) /     30.670 (MB)
	Size of irrep 5 of <AB|CD> integrals:      4.964 (MW) /     39.712 (MB)
	Size of irrep 6 of <AB|CD> integrals:      4.884 (MW) /     39.073 (MB)
	Size of irrep 7 of <AB|CD> integrals:      4.964 (MW) /     39.712 (MB)
	Total:                                    37.078 (MW) /    296.623 (MB)

	Size of irrep 0 of <ab|cd> integrals:      5.304 (MW) /     42.430 (MB)
	Size of irrep 1 of <ab|cd> integrals:      4.503 (MW) /     36.023 (MB)
	Size of irrep 2 of <ab|cd> integrals:      4.503 (MW) /     36.023 (MB)
	Size of irrep 3 of <ab|cd> integrals:      4.503 (MW) /     36.023 (MB)
	Size of irrep 4 of <ab|cd> integrals:      3.912 (MW) /     31.300 (MB)
	Size of irrep 5 of <ab|cd> integrals:      5.054 (MW) /     40.428 (MB)
	Size of irrep 6 of <ab|cd> integrals:      5.054 (MW) /     40.428 (MB)
	Size of irrep 7 of <ab|cd> integrals:      5.054 (MW) /     40.428 (MB)
	Total:                                    37.885 (MW) /    303.084 (MB)

	Size of irrep 0 of <Ab|Cd> integrals:     22.724 (MW) /    181.794 (MB)
	Size of irrep 1 of <Ab|Cd> integrals:     17.792 (MW) /    142.332 (MB)
	Size of irrep 2 of <Ab|Cd> integrals:     17.918 (MW) /    143.346 (MB)
	Size of irrep 3 of <Ab|Cd> integrals:     17.792 (MW) /    142.332 (MB)
	Size of irrep 4 of <Ab|Cd> integrals:     15.492 (MW) /    123.937 (MB)
	Size of irrep 5 of <Ab|Cd> integrals:     20.035 (MW) /    160.277 (MB)
	Size of irrep 6 of <Ab|Cd> integrals:     19.874 (MW) /    158.990 (MB)
	Size of irrep 7 of <Ab|Cd> integrals:     20.035 (MW) /    160.277 (MB)
	Total:                                   151.661 (MW) /   1213.285 (MB)

	Size of irrep 0 of <IA|BC> integrals:      0.299 (MW) /      2.390 (MB)
	Size of irrep 1 of <IA|BC> integrals:      0.193 (MW) /      1.543 (MB)
	Size of irrep 2 of <IA|BC> integrals:      0.131 (MW) /      1.047 (MB)
	Size of irrep 3 of <IA|BC> integrals:      0.193 (MW) /      1.543 (MB)
	Size of irrep 4 of <IA|BC> integrals:      0.121 (MW) /      0.971 (MB)
	Size of irrep 5 of <IA|BC> integrals:      0.205 (MW) /      1.640 (MB)
	Size of irrep 6 of <IA|BC> integrals:      0.278 (MW) /      2.228 (MB)
	Size of irrep 7 of <IA|BC> integrals:      0.205 (MW) /      1.640 (MB)
	Total:                                     1.625 (MW) /     13.001 (MB)

	Size of irrep 0 of <ia|bc> integrals:      0.182 (MW) /      1.457 (MB)
	Size of irrep 1 of <ia|bc> integrals:      0.085 (MW) /      0.679 (MB)
	Size of irrep 2 of <ia|bc> integrals:      0.085 (MW) /      0.679 (MB)
	Size of irrep 3 of <ia|bc> integrals:      0.085 (MW) /      0.679 (MB)
	Size of irrep 4 of <ia|bc> integrals:      0.044 (MW) /      0.348 (MB)
	Size of irrep 5 of <ia|bc> integrals:      0.117 (MW) /      0.935 (MB)
	Size of irrep 6 of <ia|bc> integrals:      0.117 (MW) /      0.935 (MB)
	Size of irrep 7 of <ia|bc> integrals:      0.117 (MW) /      0.935 (MB)
	Total:                                     0.831 (MW) /      6.648 (MB)

	Size of irrep 0 of <Ia|Bc> integrals:      0.305 (MW) /      2.441 (MB)
	Size of irrep 1 of <Ia|Bc> integrals:      0.194 (MW) /      1.552 (MB)
	Size of irrep 2 of <Ia|Bc> integrals:      0.131 (MW) /      1.050 (MB)
	Size of irrep 3 of <Ia|Bc> integrals:      0.194 (MW) /      1.552 (MB)
	Size of irrep 4 of <Ia|Bc> integrals:      0.122 (MW) /      0.976 (MB)
	Size of irrep 5 of <Ia|Bc> integrals:      0.206 (MW) /      1.647 (MB)
	Size of irrep 6 of <Ia|Bc> integrals:      0.285 (MW) /      2.282 (MB)
	Size of irrep 7 of <Ia|Bc> integrals:      0.206 (MW) /      1.647 (MB)
	Total:                                     1.643 (MW) /     13.148 (MB)

	Size of irrep 0 of <iA|bC> integrals:      0.181 (MW) /      1.449 (MB)
	Size of irrep 1 of <iA|bC> integrals:      0.084 (MW) /      0.675 (MB)
	Size of irrep 2 of <iA|bC> integrals:      0.085 (MW) /      0.677 (MB)
	Size of irrep 3 of <iA|bC> integrals:      0.084 (MW) /      0.675 (MB)
	Size of irrep 4 of <iA|bC> integrals:      0.043 (MW) /      0.346 (MB)
	Size of irrep 5 of <iA|bC> integrals:      0.116 (MW) /      0.931 (MB)
	Size of irrep 6 of <iA|bC> integrals:      0.111 (MW) /      0.892 (MB)
	Size of irrep 7 of <iA|bC> integrals:      0.116 (MW) /      0.931 (MB)
	Total:                                     0.822 (MW) /      6.576 (MB)

	Size of irrep 0 of tIjAb amplitudes:       0.005 (MW) /      0.038 (MB)
	Size of irrep 1 of tIjAb amplitudes:       0.000 (MW) /      0.000 (MB)
	Size of irrep 2 of tIjAb amplitudes:       0.000 (MW) /      0.000 (MB)
	Size of irrep 3 of tIjAb amplitudes:       0.000 (MW) /      0.000 (MB)
	Size of irrep 4 of tIjAb amplitudes:       0.000 (MW) /      0.000 (MB)
	Size of irrep 5 of tIjAb amplitudes:       0.000 (MW) /      0.000 (MB)
	Size of irrep 6 of tIjAb amplitudes:       0.004 (MW) /      0.036 (MB)
	Size of irrep 7 of tIjAb amplitudes:       0.000 (MW) /      0.000 (MB)
	Total:                                     0.009 (MW) /      0.074 (MB)

	Nuclear Rep. energy          =      0.00000000000000
	SCF energy                   =    -24.53315319613273
	One-electron energy          =     -3.78435241251754
	Two-electron (AA) energy     =      0.34539004446086
	Two-electron (BB) energy     =      0.00000000000000
	Two-electron (AB) energy     =      0.89166816931480
	Two-electron energy          =      1.23705821377567
	Reference energy             =    -24.53315319613286

*** tstop() called on cqc05 at Wed Aug 26 09:17:51 2020
Module time:
	user time   =      11.34 seconds =       0.19 minutes
	system time =       6.16 seconds =       0.10 minutes
	total time  =         18 seconds =       0.30 minutes
Total time:
	user time   =      50.12 seconds =       0.84 minutes
	system time =       6.93 seconds =       0.12 minutes
	total time  =         57 seconds =       0.95 minutes

*** tstart() called on cqc05
*** at Wed Aug 26 09:17:51 2020

            **************************
            *                        *
            *        CCENERGY        *
            *                        *
            **************************

    Nuclear Rep. energy (wfn)     =    0.000000000000000
    SCF energy          (wfn)     =  -24.533153196132734

      * MP2 total energy                      =  -24.582003589761118
      * CCSD total energy                     =  -24.600298157980085
*** Psi4 exiting successfully. Buy a developer a beer!
