                               Psi4 1.2a1.dev938

  ==> Input File <==

--------------------------------------------------------------------------
# Any line starting with the # character is a comment line
memory 250000 mb
molecule molecule{
0 2
B          0.0000000000        0.0000000000        0.0000000000
}

set {
  reference uhf
  basis aug-cc-pv(t+d)z
  scf_type OUT_OF_CORE
  freeze_core true
}

energy('ccsd')
--------------------------------------------------------------------------

    Molecular point group: d2h
    Geometry (in Angstrom), charge = 0, multiplicity = 2:

       Center              X                  Y                   Z               Mass
    ------------   -----------------  -----------------  -----------------  -----------------
           B          0.000000000000     0.000000000000     0.000000000000    11.009305406000

  Charge       = 0
  Multiplicity = 2
  Basis Set: AUG-CC-PV(T+D)Z
    Blend: AUG-CC-PV(T+D)Z

    Orbital Energies (a.u.)
    -----------------------

    Alpha Occupied:

       1Ag    -7.701723     2Ag    -0.545400     1B1u   -0.318486

    Alpha Virtual:

       1B3u    0.024844     1B2u    0.024844     2B1u    0.059109
       3Ag     0.065688     2B3u    0.088490     2B2u    0.088490
       4Ag     0.188163     1B1g    0.188163     1B2g    0.189054
       1B3g    0.189054     5Ag     0.189772     3B1u    0.345169
       3B3u    0.391032     3B2u    0.391032     6Ag     0.506099
       7Ag     0.652849     2B2g    0.655395     2B3g    0.655395
       4B2u    0.666342     4B3u    0.666342     8Ag     0.667275
       2B1g    0.667275     4B1u    0.672553     1Au     0.672553
       5B2u    0.676272     5B3u    0.676272     5B1u    0.677486
       6B1u    1.523051     6B3u    1.550615     6B2u    1.550615
       9Ag     2.116922     3B2g    2.118214     3B3g    2.118214
       3B1g    2.122979    10Ag     2.122979     7B3u    2.202113
       7B2u    2.202113     7B1u    2.211760     2Au     2.211760
       8B3u    2.217452     8B2u    2.217452     8B1u    2.219332
      11Ag     3.173761

    Beta Occupied:

       1Ag    -7.686734     2Ag    -0.446540

    Beta Virtual:

       1B2u    0.029222     1B3u    0.029222     1B1u    0.043896
       3Ag     0.070513     2B3u    0.095997     2B2u    0.095997
       2B1u    0.131237     1B1g    0.188351     4Ag     0.188351
       1B2g    0.197142     1B3g    0.197142     5Ag     0.200400
       3B3u    0.400672     3B2u    0.400672     3B1u    0.438549
       6Ag     0.529959     4B3u    0.666290     4B2u    0.666290
       7Ag     0.669594     2B1g    0.669594     4B1u    0.680685
       1Au     0.680685     5B2u    0.689683     5B3u    0.689683
       5B1u    0.692769     2B2g    0.698669     2B3g    0.698669
       8Ag     0.709815     6B3u    1.560293     6B2u    1.560293
       6B1u    1.604295     3B1g    2.129130     9Ag     2.129130
       3B2g    2.169950     3B3g    2.169950    10Ag     2.184621
       7B3u    2.203806     7B2u    2.203806     7B1u    2.233844
       2Au     2.233844     8B3u    2.252474     8B2u    2.252474
       8B1u    2.258811    11Ag     3.195226

    Final Occupation by Irrep:
             Ag   B1g   B2g   B3g    Au   B1u   B2u   B3u
    DOCC [     2,    0,    0,    0,    0,    0,    0,    0 ]
    SOCC [     0,    0,    0,    0,    0,    1,    0,    0 ]

  Energy converged.

  @UHF Final Energy:   -24.53217153134256

   => Energetics <=

    Nuclear Repulsion Energy =              0.0000000000000000
    One-Electron Energy =                 -32.3654606707145334
    Two-Electron Energy =                   7.8332891393719741
    Total Energy =                        -24.5321715313425592

  UHF NO Occupations:
  HONO-2 :    1 Ag 1.9999983
  HONO-1 :    2 Ag 1.9943891
  HONO-0 :    1B1u 1.0000000
  LUNO+0 :    3 Ag 0.0056109
  LUNO+1 :    4 Ag 0.0000017
  LUNO+2 :    5 Ag 0.0000000
  LUNO+3 :    6 Ag 0.0000000

Properties will be evaluated at   0.000000,   0.000000,   0.000000 Bohr

Properties computed using the SCF density matrix

  Nuclear Dipole Moment: (a.u.)
     X:     0.0000      Y:     0.0000      Z:     0.0000

  Electronic Dipole Moment: (a.u.)
     X:     0.0000      Y:     0.0000      Z:     0.0000

  Dipole Moment: (a.u.)
     X:     0.0000      Y:     0.0000      Z:     0.0000     Total:     0.0000

  Dipole Moment: (Debye)
     X:     0.0000      Y:     0.0000      Z:     0.0000     Total:     0.0000

*** tstop() called on cqc05 at Thu Aug 20 20:10:51 2020
Module time:
	user time   =       0.37 seconds =       0.01 minutes
	system time =       0.01 seconds =       0.00 minutes
	total time  =          0 seconds =       0.00 minutes
Total time:
	user time   =       0.37 seconds =       0.01 minutes
	system time =       0.01 seconds =       0.00 minutes
	total time  =          0 seconds =       0.00 minutes

*** tstart() called on cqc05
*** at Thu Aug 20 20:10:51 2020

	Wfn Parameters:
	--------------------
	Wavefunction         = CCSD
	Number of irreps     = 8
	Number of MOs        = 46
	Number of active MOs = 45
	AO-Basis             = NONE
	Semicanonical        = false
	Reference            = UHF
	Print Level          = 1

	IRREP	# MOs	# FZDC	# DOCC	# SOCC	# VIRT	# FZVR
	-----	-----	------	------	------	------	------
	 Ag	   11	    1	    1	    0	    9	    0
	 B1g	   3	    0	    0	    0	    3	    0
	 B2g	   3	    0	    0	    0	    3	    0
	 B3g	   3	    0	    0	    0	    3	    0
	 Au	   2	    0	    0	    0	    2	    0
	 B1u	   8	    0	    0	    1	    7	    0
	 B2u	   8	    0	    0	    0	    8	    0
	 B3u	   8	    0	    0	    0	    8	    0
	Transforming integrals...
	IWL integrals will be deleted.
	(OO|OO)...
	Presorting SO-basis two-electron integrals.
	Sorting File: SO Ints (nn|nn) nbuckets = 1
	Transforming the one-electron integrals and constructing Fock matrices
	Starting AA/AB first half-transformation.
	Sorting AA/AB half-transformed integrals.
	Starting BB first half-transformation.
	Sorting BB half-transformed integrals.
	First half integral transformation complete.
	Starting AA second half-transformation.
	Starting AB second half-transformation.
	Starting BB second half-transformation.
	Two-electron integral transformation complete.
	(OO|OV)...
	Starting AA second half-transformation.
	Starting AB second half-transformation.
	Starting BB second half-transformation.
	Two-electron integral transformation complete.
	(OO|VV)...
	Starting AA second half-transformation.
	Starting AB second half-transformation.
	Starting BB second half-transformation.
	Two-electron integral transformation complete.
	(OV|OO)...
	Starting AA/AB first half-transformation.
	Sorting AA/AB half-transformed integrals.
	Starting BB first half-transformation.
	Sorting BB half-transformed integrals.
	First half integral transformation complete.
	Starting AA second half-transformation.
	Starting AB second half-transformation.
	Starting BB second half-transformation.
	Two-electron integral transformation complete.
	(OV|OV)...
	Starting AA second half-transformation.
	Starting AB second half-transformation.
	Starting BB second half-transformation.
	Two-electron integral transformation complete.
	(OV|VV)...
	Starting AA second half-transformation.
	Starting AB second half-transformation.
	Starting BB second half-transformation.
	Two-electron integral transformation complete.
	(VV|OO)...
	Starting AA/AB first half-transformation.
	Sorting AA/AB half-transformed integrals.
	Starting BB first half-transformation.
	Sorting BB half-transformed integrals.
	First half integral transformation complete.
	Starting AA second half-transformation.
	Starting AB second half-transformation.
	Starting BB second half-transformation.
	Two-electron integral transformation complete.
	(VV|OV)...
	Starting AA second half-transformation.
	Starting AB second half-transformation.
	Starting BB second half-transformation.
	Two-electron integral transformation complete.
	(VV|VV)...
	Starting AA second half-transformation.
	Starting AB second half-transformation.
	Starting BB second half-transformation.
	Two-electron integral transformation complete.
	Frozen core energy     =    -21.98530052616581

	Size of irrep 0 of <AB|CD> integrals:      0.015 (MW) /      0.121 (MB)
	Size of irrep 1 of <AB|CD> integrals:      0.013 (MW) /      0.104 (MB)
	Size of irrep 2 of <AB|CD> integrals:      0.012 (MW) /      0.093 (MB)
	Size of irrep 3 of <AB|CD> integrals:      0.012 (MW) /      0.093 (MB)
	Size of irrep 4 of <AB|CD> integrals:      0.008 (MW) /      0.061 (MB)
	Size of irrep 5 of <AB|CD> integrals:      0.014 (MW) /      0.110 (MB)
	Size of irrep 6 of <AB|CD> integrals:      0.015 (MW) /      0.121 (MB)
	Size of irrep 7 of <AB|CD> integrals:      0.015 (MW) /      0.121 (MB)
	Total:                                     0.103 (MW) /      0.824 (MB)

	Size of irrep 0 of <ab|cd> integrals:      0.017 (MW) /      0.135 (MB)
	Size of irrep 1 of <ab|cd> integrals:      0.013 (MW) /      0.108 (MB)
	Size of irrep 2 of <ab|cd> integrals:      0.013 (MW) /      0.108 (MB)
	Size of irrep 3 of <ab|cd> integrals:      0.013 (MW) /      0.108 (MB)
	Size of irrep 4 of <ab|cd> integrals:      0.008 (MW) /      0.065 (MB)
	Size of irrep 5 of <ab|cd> integrals:      0.016 (MW) /      0.127 (MB)
	Size of irrep 6 of <ab|cd> integrals:      0.016 (MW) /      0.127 (MB)
	Size of irrep 7 of <ab|cd> integrals:      0.016 (MW) /      0.127 (MB)
	Total:                                     0.113 (MW) /      0.904 (MB)

	Size of irrep 0 of <Ab|Cd> integrals:      0.088 (MW) /      0.701 (MB)
	Size of irrep 1 of <Ab|Cd> integrals:      0.053 (MW) /      0.423 (MB)
	Size of irrep 2 of <Ab|Cd> integrals:      0.050 (MW) /      0.401 (MB)
	Size of irrep 3 of <Ab|Cd> integrals:      0.050 (MW) /      0.401 (MB)
	Size of irrep 4 of <Ab|Cd> integrals:      0.031 (MW) /      0.251 (MB)
	Size of irrep 5 of <Ab|Cd> integrals:      0.059 (MW) /      0.472 (MB)
	Size of irrep 6 of <Ab|Cd> integrals:      0.062 (MW) /      0.496 (MB)
	Size of irrep 7 of <Ab|Cd> integrals:      0.062 (MW) /      0.496 (MB)
	Total:                                     0.455 (MW) /      3.642 (MB)

	Size of irrep 0 of <IA|BC> integrals:      0.005 (MW) /      0.037 (MB)
	Size of irrep 1 of <IA|BC> integrals:      0.001 (MW) /      0.009 (MB)
	Size of irrep 2 of <IA|BC> integrals:      0.002 (MW) /      0.019 (MB)
	Size of irrep 3 of <IA|BC> integrals:      0.002 (MW) /      0.019 (MB)
	Size of irrep 4 of <IA|BC> integrals:      0.001 (MW) /      0.007 (MB)
	Size of irrep 5 of <IA|BC> integrals:      0.004 (MW) /      0.030 (MB)
	Size of irrep 6 of <IA|BC> integrals:      0.003 (MW) /      0.022 (MB)
	Size of irrep 7 of <IA|BC> integrals:      0.003 (MW) /      0.022 (MB)
	Total:                                     0.021 (MW) /      0.164 (MB)

	Size of irrep 0 of <ia|bc> integrals:      0.003 (MW) /      0.022 (MB)
	Size of irrep 1 of <ia|bc> integrals:      0.001 (MW) /      0.006 (MB)
	Size of irrep 2 of <ia|bc> integrals:      0.001 (MW) /      0.006 (MB)
	Size of irrep 3 of <ia|bc> integrals:      0.001 (MW) /      0.006 (MB)
	Size of irrep 4 of <ia|bc> integrals:      0.000 (MW) /      0.003 (MB)
	Size of irrep 5 of <ia|bc> integrals:      0.002 (MW) /      0.016 (MB)
	Size of irrep 6 of <ia|bc> integrals:      0.002 (MW) /      0.016 (MB)
	Size of irrep 7 of <ia|bc> integrals:      0.002 (MW) /      0.016 (MB)
	Total:                                     0.011 (MW) /      0.090 (MB)

	Size of irrep 0 of <Ia|Bc> integrals:      0.005 (MW) /      0.040 (MB)
	Size of irrep 1 of <Ia|Bc> integrals:      0.001 (MW) /      0.009 (MB)
	Size of irrep 2 of <Ia|Bc> integrals:      0.002 (MW) /      0.020 (MB)
	Size of irrep 3 of <Ia|Bc> integrals:      0.002 (MW) /      0.020 (MB)
	Size of irrep 4 of <Ia|Bc> integrals:      0.001 (MW) /      0.007 (MB)
	Size of irrep 5 of <Ia|Bc> integrals:      0.004 (MW) /      0.033 (MB)
	Size of irrep 6 of <Ia|Bc> integrals:      0.003 (MW) /      0.022 (MB)
	Size of irrep 7 of <Ia|Bc> integrals:      0.003 (MW) /      0.022 (MB)
	Total:                                     0.022 (MW) /      0.173 (MB)

	Size of irrep 0 of <iA|bC> integrals:      0.003 (MW) /      0.021 (MB)
	Size of irrep 1 of <iA|bC> integrals:      0.001 (MW) /      0.006 (MB)
	Size of irrep 2 of <iA|bC> integrals:      0.001 (MW) /      0.005 (MB)
	Size of irrep 3 of <iA|bC> integrals:      0.001 (MW) /      0.005 (MB)
	Size of irrep 4 of <iA|bC> integrals:      0.000 (MW) /      0.003 (MB)
	Size of irrep 5 of <iA|bC> integrals:      0.002 (MW) /      0.014 (MB)
	Size of irrep 6 of <iA|bC> integrals:      0.002 (MW) /      0.016 (MB)
	Size of irrep 7 of <iA|bC> integrals:      0.002 (MW) /      0.016 (MB)
	Total:                                     0.011 (MW) /      0.086 (MB)

	Size of irrep 0 of tIjAb amplitudes:       0.000 (MW) /      0.002 (MB)
	Size of irrep 1 of tIjAb amplitudes:       0.000 (MW) /      0.000 (MB)
	Size of irrep 2 of tIjAb amplitudes:       0.000 (MW) /      0.000 (MB)
	Size of irrep 3 of tIjAb amplitudes:       0.000 (MW) /      0.000 (MB)
	Size of irrep 4 of tIjAb amplitudes:       0.000 (MW) /      0.000 (MB)
	Size of irrep 5 of tIjAb amplitudes:       0.000 (MW) /      0.002 (MB)
	Size of irrep 6 of tIjAb amplitudes:       0.000 (MW) /      0.000 (MB)
	Size of irrep 7 of tIjAb amplitudes:       0.000 (MW) /      0.000 (MB)
	Total:                                     0.001 (MW) /      0.004 (MB)

	Nuclear Rep. energy          =      0.00000000000000
	SCF energy                   =    -24.53217153134256
	One-electron energy          =     -3.78331606499774
	Two-electron (AA) energy     =      0.34512342627933
	Two-electron (BB) energy     =      0.00000000000000
	Two-electron (AB) energy     =      0.89132163354167
	Two-electron energy          =      1.23644505982099
	Reference energy             =    -24.53217153134256

*** tstop() called on cqc05 at Thu Aug 20 20:10:51 2020
Module time:
	user time   =       0.09 seconds =       0.00 minutes
	system time =       0.08 seconds =       0.00 minutes
	total time  =          0 seconds =       0.00 minutes
Total time:
	user time   =       0.46 seconds =       0.01 minutes
	system time =       0.09 seconds =       0.00 minutes
	total time  =          0 seconds =       0.00 minutes

*** tstart() called on cqc05
*** at Thu Aug 20 20:10:51 2020

            **************************
            *                        *
            *        CCENERGY        *
            *                        *
            **************************

    Nuclear Rep. energy (wfn)     =    0.000000000000000
    SCF energy          (wfn)     =  -24.532171531342559
    Reference energy    (file100) =  -24.532171531342559

    Input parameters:
    -----------------
    Wave function   =     CCSD
    Reference wfn   =     UHF
    Brueckner       =     No
    Memory (Mbytes) =     250000.0
    Maxiter         =     50
    R_Convergence   =     1.0e-07
    E_Convergence   =     1.0e-06
    Restart         =     Yes
    DIIS            =     Yes
    AO Basis        =     NONE
    ABCD            =     NEW
    Cache Level     =     2
    Cache Type      =     LRU
    Print Level     =     1
    Num. of threads =     4
    # Amps to Print =     10
    Print MP2 Amps? =     No
    Analyze T2 Amps =     No
    Print Pair Ener =     No
    Local CC        =     No
    SCS-MP2         =     False
    SCSN-MP2        =     False
    SCS-CCSD        =     False

MP2 correlation energy -0.0444051537308637
                Solving CC Amplitude Equations
                ------------------------------
  Iter             Energy              RMS        T1Diag      D1Diag    New D1Diag    D2Diag
  ----     ---------------------    ---------   ----------  ----------  ----------   --------
     0        -0.044405153730864    0.000e+00    0.000000    0.000000    0.000000    0.000000
     1        -0.055995827273214    6.014e-02    0.009018    0.000000    0.000000    0.000000
     2        -0.064320854993151    3.008e-02    0.018441    0.000000    0.000000    0.000000
     3        -0.064825943591635    6.040e-03    0.020257    0.000000    0.000000    0.000000
     4        -0.064957884433610    1.180e-03    0.020477    0.000000    0.000000    0.000000
     5        -0.064910498337863    2.561e-04    0.020394    0.000000    0.000000    0.000000
     6        -0.064923499966033    7.908e-05    0.020395    0.000000    0.000000    0.000000
     7        -0.064922835791278    2.296e-05    0.020390    0.000000    0.000000    0.000000
     8        -0.064921778347428    5.975e-06    0.020389    0.000000    0.000000    0.000000
     9        -0.064922163776370    1.704e-06    0.020390    0.000000    0.000000    0.000000
    10        -0.064922148261001    3.984e-07    0.020390    0.000000    0.000000    0.000000
    11        -0.064922147046141    1.533e-07    0.020390    0.000000    0.000000    0.000000
    12        -0.064922146846055    4.069e-08    0.020390    0.000000    0.000000    0.000000
    12        -0.064922146846055    4.069e-08    0.020390    0.000000    0.000000    0.000000

    Iterations converged.

    CCSD corr. energy   =   -0.064922146846055
    PPL corr. energy    =    0.027556363900530
    OS PPL corr. energy =    0.026779016451556
    SS PPL corr. energy =    0.000777347448973
    Largest TIA Amplitudes:
              0   4         0.0203472023
              0   2        -0.0155172364
              0   6         0.0060413962
              0   3         0.0060020588
              0   0        -0.0047219629
              1  20        -0.0044750415
              1  23         0.0037706626
              1  21        -0.0024254642
              1  26         0.0018863883
              0   8        -0.0008509287

    Largest Tia Amplitudes:
              0   0         0.0154402436
              0   3        -0.0144283946
              0   2        -0.0019124465
              0   8         0.0014010242
              0   5         0.0006984632
              0   7         0.0002857710

    Largest TIJAB Amplitudes:
      1   0  21   3        -0.0261595357
      1   0  21   0         0.0155757484
      1   0  28  16        -0.0149907442
      1   0  36  13        -0.0149907442
      1   0  24   3        -0.0147193827
      1   0  27  16        -0.0132687752
      1   0  35  13        -0.0132687752
      1   0  20   3        -0.0117135582
      1   0  29  16        -0.0103889342
      1   0  37  13        -0.0103889342

    Largest TIjAb Amplitudes:
      0   0  28  29         0.1052177973
      0   0  36  37         0.1052177973
      0   0  27  29         0.0978208896
      0   0  35  37         0.0978208896
      0   0  28  28         0.0828597600
      0   0  36  36         0.0828597600
      0   0  27  28         0.0776695730
      0   0  35  36         0.0776695730

      * MP2 total energy                      =  -24.576576685073423
      * CCSD total energy                     =  -24.597093678188614
*** Psi4 exiting successfully. Buy a developer a beer!
