                               Psi4 1.2a1.dev938

  ==> Input File <==

--------------------------------------------------------------------------
# Any line starting with the # character is a comment line
memory 250000 mb
molecule molecule{
0 2
B          0.0000000000        0.0000000000        0.0000000000
}

set {
  reference uhf
  basis aug-cc-pv(d+d)z
  scf_type OUT_OF_CORE
  freeze_core true
}

energy('ccsd')
--------------------------------------------------------------------------

    Molecular point group: d2h
    Geometry (in Angstrom), charge = 0, multiplicity = 2:

       Center              X                  Y                   Z               Mass
    ------------   -----------------  -----------------  -----------------  -----------------
           B          0.000000000000     0.000000000000     0.000000000000    11.009305406000

  Charge       = 0
  Multiplicity = 2
  Basis Set: AUG-CC-PV(D+D)Z
    Blend: AUG-CC-PV(D+D)Z

    Orbital Energies (a.u.)
    -----------------------

    Alpha Occupied:

       1Ag    -7.704488     2Ag    -0.545795     1B2u   -0.317329

    Alpha Virtual:

       1B1u    0.025862     1B3u    0.025862     2B2u    0.070627
       3Ag     0.075435     2B1u    0.104243     2B3u    0.104243
       4Ag     0.273293     1B1g    0.273344     1B3g    0.273344
       5Ag     0.276296     1B2g    0.276296     3B2u    0.487412
       3B3u    0.545196     3B1u    0.545196     6Ag     0.652529
       7Ag     1.033943     2B1g    1.037599     2B3g    1.037599
       8Ag     1.053176     2B2g    1.053176

    Beta Occupied:

       1Ag    -7.688818     2Ag    -0.447721

    Beta Virtual:

       1B1u    0.031270     1B3u    0.031270     1B2u    0.048717
       3Ag     0.081534     2B1u    0.113066     2B3u    0.113066
       2B2u    0.150897     1B2g    0.276899     4Ag     0.276899
       1B1g    0.291727     1B3g    0.291727     5Ag     0.296990
       3B3u    0.556999     3B1u    0.556999     3B2u    0.597665
       6Ag     0.678926     7Ag     1.057782     2B2g    1.057782
       2B1g    1.095153     2B3g    1.095153     8Ag     1.109040

    Final Occupation by Irrep:
             Ag   B1g   B2g   B3g    Au   B1u   B2u   B3u
    DOCC [     2,    0,    0,    0,    0,    0,    0,    0 ]
    SOCC [     0,    0,    0,    0,    0,    0,    1,    0 ]

  Energy converged.

  @UHF Final Energy:   -24.53057377433875

   => Energetics <=

    Nuclear Repulsion Energy =              0.0000000000000000
    One-Electron Energy =                 -32.3569965696927895
    Two-Electron Energy =                   7.8264227953540395
    Total Energy =                        -24.5305737743387482

  UHF NO Occupations:
  HONO-2 :    1 Ag 1.9999994
  HONO-1 :    2 Ag 1.9946934
  HONO-0 :    1B2u 1.0000000
  LUNO+0 :    3 Ag 0.0053066
  LUNO+1 :    4 Ag 0.0000006
  LUNO+2 :    5 Ag 0.0000000
  LUNO+3 :    2B2u 0.0000000

Properties will be evaluated at   0.000000,   0.000000,   0.000000 Bohr

Properties computed using the SCF density matrix

  Nuclear Dipole Moment: (a.u.)
     X:     0.0000      Y:     0.0000      Z:     0.0000

  Electronic Dipole Moment: (a.u.)
     X:     0.0000      Y:     0.0000      Z:     0.0000

  Dipole Moment: (a.u.)
     X:     0.0000      Y:     0.0000      Z:     0.0000     Total:     0.0000

  Dipole Moment: (Debye)
     X:     0.0000      Y:     0.0000      Z:     0.0000     Total:     0.0000

*** tstop() called on cqc05 at Thu Aug 20 19:56:11 2020
Module time:
	user time   =       0.22 seconds =       0.00 minutes
	system time =       0.02 seconds =       0.00 minutes
	total time  =          0 seconds =       0.00 minutes
Total time:
	user time   =       0.22 seconds =       0.00 minutes
	system time =       0.02 seconds =       0.00 minutes
	total time  =          0 seconds =       0.00 minutes

*** tstart() called on cqc05
*** at Thu Aug 20 19:56:11 2020

	Wfn Parameters:
	--------------------
	Wavefunction         = CCSD
	Number of irreps     = 8
	Number of MOs        = 23
	Number of active MOs = 22
	AO-Basis             = NONE
	Semicanonical        = false
	Reference            = UHF
	Print Level          = 1

	IRREP	# MOs	# FZDC	# DOCC	# SOCC	# VIRT	# FZVR
	-----	-----	------	------	------	------	------
	 Ag	   8	    1	    1	    0	    6	    0
	 B1g	   2	    0	    0	    0	    2	    0
	 B2g	   2	    0	    0	    0	    2	    0
	 B3g	   2	    0	    0	    0	    2	    0
	 Au	   0	    0	    0	    0	    0	    0
	 B1u	   3	    0	    0	    0	    3	    0
	 B2u	   3	    0	    0	    1	    2	    0
	 B3u	   3	    0	    0	    0	    3	    0
	Transforming integrals...
	IWL integrals will be deleted.
	(OO|OO)...
	Presorting SO-basis two-electron integrals.
	Sorting File: SO Ints (nn|nn) nbuckets = 1
	Transforming the one-electron integrals and constructing Fock matrices
	Starting AA/AB first half-transformation.
	Sorting AA/AB half-transformed integrals.
	Starting BB first half-transformation.
	Sorting BB half-transformed integrals.
	First half integral transformation complete.
	Starting AA second half-transformation.
	Starting AB second half-transformation.
	Starting BB second half-transformation.
	Two-electron integral transformation complete.
	(OO|OV)...
	Starting AA second half-transformation.
	Starting AB second half-transformation.
	Starting BB second half-transformation.
	Two-electron integral transformation complete.
	(OO|VV)...
	Starting AA second half-transformation.
	Starting AB second half-transformation.
	Starting BB second half-transformation.
	Two-electron integral transformation complete.
	(OV|OO)...
	Starting AA/AB first half-transformation.
	Sorting AA/AB half-transformed integrals.
	Starting BB first half-transformation.
	Sorting BB half-transformed integrals.
	First half integral transformation complete.
	Starting AA second half-transformation.
	Starting AB second half-transformation.
	Starting BB second half-transformation.
	Two-electron integral transformation complete.
	(OV|OV)...
	Starting AA second half-transformation.
	Starting AB second half-transformation.
	Starting BB second half-transformation.
	Two-electron integral transformation complete.
	(OV|VV)...
	Starting AA second half-transformation.
	Starting AB second half-transformation.
	Starting BB second half-transformation.
	Two-electron integral transformation complete.
	(VV|OO)...
	Starting AA/AB first half-transformation.
	Sorting AA/AB half-transformed integrals.
	Starting BB first half-transformation.
	Sorting BB half-transformed integrals.
	First half integral transformation complete.
	Starting AA second half-transformation.
	Starting AB second half-transformation.
	Starting BB second half-transformation.
	Two-electron integral transformation complete.
	(VV|OV)...
	Starting AA second half-transformation.
	Starting AB second half-transformation.
	Starting BB second half-transformation.
	Two-electron integral transformation complete.
	(VV|VV)...
	Starting AA second half-transformation.
	Starting AB second half-transformation.
	Starting BB second half-transformation.
	Two-electron integral transformation complete.
	Frozen core energy     =    -21.98517073709707

	Size of irrep 0 of <AB|CD> integrals:      0.001 (MW) /      0.005 (MB)
	Size of irrep 1 of <AB|CD> integrals:      0.000 (MW) /      0.004 (MB)
	Size of irrep 2 of <AB|CD> integrals:      0.001 (MW) /      0.005 (MB)
	Size of irrep 3 of <AB|CD> integrals:      0.000 (MW) /      0.004 (MB)
	Size of irrep 4 of <AB|CD> integrals:      0.000 (MW) /      0.002 (MB)
	Size of irrep 5 of <AB|CD> integrals:      0.001 (MW) /      0.006 (MB)
	Size of irrep 6 of <AB|CD> integrals:      0.001 (MW) /      0.005 (MB)
	Size of irrep 7 of <AB|CD> integrals:      0.001 (MW) /      0.006 (MB)
	Total:                                     0.005 (MW) /      0.037 (MB)

	Size of irrep 0 of <ab|cd> integrals:      0.001 (MW) /      0.006 (MB)
	Size of irrep 1 of <ab|cd> integrals:      0.001 (MW) /      0.005 (MB)
	Size of irrep 2 of <ab|cd> integrals:      0.001 (MW) /      0.005 (MB)
	Size of irrep 3 of <ab|cd> integrals:      0.001 (MW) /      0.005 (MB)
	Size of irrep 4 of <ab|cd> integrals:      0.000 (MW) /      0.003 (MB)
	Size of irrep 5 of <ab|cd> integrals:      0.001 (MW) /      0.007 (MB)
	Size of irrep 6 of <ab|cd> integrals:      0.001 (MW) /      0.007 (MB)
	Size of irrep 7 of <ab|cd> integrals:      0.001 (MW) /      0.007 (MB)
	Total:                                     0.006 (MW) /      0.045 (MB)

	Size of irrep 0 of <Ab|Cd> integrals:      0.005 (MW) /      0.041 (MB)
	Size of irrep 1 of <Ab|Cd> integrals:      0.002 (MW) /      0.018 (MB)
	Size of irrep 2 of <Ab|Cd> integrals:      0.003 (MW) /      0.020 (MB)
	Size of irrep 3 of <Ab|Cd> integrals:      0.002 (MW) /      0.018 (MB)
	Size of irrep 4 of <Ab|Cd> integrals:      0.001 (MW) /      0.009 (MB)
	Size of irrep 5 of <Ab|Cd> integrals:      0.003 (MW) /      0.027 (MB)
	Size of irrep 6 of <Ab|Cd> integrals:      0.003 (MW) /      0.023 (MB)
	Size of irrep 7 of <Ab|Cd> integrals:      0.003 (MW) /      0.027 (MB)
	Total:                                     0.023 (MW) /      0.183 (MB)

	Size of irrep 0 of <IA|BC> integrals:      0.001 (MW) /      0.004 (MB)
	Size of irrep 1 of <IA|BC> integrals:      0.000 (MW) /      0.002 (MB)
	Size of irrep 2 of <IA|BC> integrals:      0.000 (MW) /      0.001 (MB)
	Size of irrep 3 of <IA|BC> integrals:      0.000 (MW) /      0.002 (MB)
	Size of irrep 4 of <IA|BC> integrals:      0.000 (MW) /      0.001 (MB)
	Size of irrep 5 of <IA|BC> integrals:      0.000 (MW) /      0.002 (MB)
	Size of irrep 6 of <IA|BC> integrals:      0.000 (MW) /      0.003 (MB)
	Size of irrep 7 of <IA|BC> integrals:      0.000 (MW) /      0.002 (MB)
	Total:                                     0.002 (MW) /      0.017 (MB)

	Size of irrep 0 of <ia|bc> integrals:      0.000 (MW) /      0.004 (MB)
	Size of irrep 1 of <ia|bc> integrals:      0.000 (MW) /      0.001 (MB)
	Size of irrep 2 of <ia|bc> integrals:      0.000 (MW) /      0.001 (MB)
	Size of irrep 3 of <ia|bc> integrals:      0.000 (MW) /      0.001 (MB)
	Size of irrep 4 of <ia|bc> integrals:      0.000 (MW) /      0.000 (MB)
	Size of irrep 5 of <ia|bc> integrals:      0.000 (MW) /      0.001 (MB)
	Size of irrep 6 of <ia|bc> integrals:      0.000 (MW) /      0.001 (MB)
	Size of irrep 7 of <ia|bc> integrals:      0.000 (MW) /      0.001 (MB)
	Total:                                     0.001 (MW) /      0.010 (MB)

	Size of irrep 0 of <Ia|Bc> integrals:      0.001 (MW) /      0.005 (MB)
	Size of irrep 1 of <Ia|Bc> integrals:      0.000 (MW) /      0.002 (MB)
	Size of irrep 2 of <Ia|Bc> integrals:      0.000 (MW) /      0.001 (MB)
	Size of irrep 3 of <Ia|Bc> integrals:      0.000 (MW) /      0.002 (MB)
	Size of irrep 4 of <Ia|Bc> integrals:      0.000 (MW) /      0.001 (MB)
	Size of irrep 5 of <Ia|Bc> integrals:      0.000 (MW) /      0.002 (MB)
	Size of irrep 6 of <Ia|Bc> integrals:      0.000 (MW) /      0.004 (MB)
	Size of irrep 7 of <Ia|Bc> integrals:      0.000 (MW) /      0.002 (MB)
	Total:                                     0.002 (MW) /      0.019 (MB)

	Size of irrep 0 of <iA|bC> integrals:      0.000 (MW) /      0.003 (MB)
	Size of irrep 1 of <iA|bC> integrals:      0.000 (MW) /      0.001 (MB)
	Size of irrep 2 of <iA|bC> integrals:      0.000 (MW) /      0.001 (MB)
	Size of irrep 3 of <iA|bC> integrals:      0.000 (MW) /      0.001 (MB)
	Size of irrep 4 of <iA|bC> integrals:      0.000 (MW) /      0.000 (MB)
	Size of irrep 5 of <iA|bC> integrals:      0.000 (MW) /      0.001 (MB)
	Size of irrep 6 of <iA|bC> integrals:      0.000 (MW) /      0.001 (MB)
	Size of irrep 7 of <iA|bC> integrals:      0.000 (MW) /      0.001 (MB)
	Total:                                     0.001 (MW) /      0.009 (MB)

	Size of irrep 0 of tIjAb amplitudes:       0.000 (MW) /      0.001 (MB)
	Size of irrep 1 of tIjAb amplitudes:       0.000 (MW) /      0.000 (MB)
	Size of irrep 2 of tIjAb amplitudes:       0.000 (MW) /      0.000 (MB)
	Size of irrep 3 of tIjAb amplitudes:       0.000 (MW) /      0.000 (MB)
	Size of irrep 4 of tIjAb amplitudes:       0.000 (MW) /      0.000 (MB)
	Size of irrep 5 of tIjAb amplitudes:       0.000 (MW) /      0.000 (MB)
	Size of irrep 6 of tIjAb amplitudes:       0.000 (MW) /      0.000 (MB)
	Size of irrep 7 of tIjAb amplitudes:       0.000 (MW) /      0.000 (MB)
	Total:                                     0.000 (MW) /      0.001 (MB)

	Nuclear Rep. energy          =      0.00000000000000
	SCF energy                   =    -24.53057377433875
	One-electron energy          =     -3.77996106520021
	Two-electron (AA) energy     =      0.34442115131579
	Two-electron (BB) energy     =      0.00000000000000
	Two-electron (AB) energy     =      0.89013687664275
	Two-electron energy          =      1.23455802795854
	Reference energy             =    -24.53057377433874

*** tstop() called on cqc05 at Thu Aug 20 19:56:11 2020
Module time:
	user time   =       0.02 seconds =       0.00 minutes
	system time =       0.03 seconds =       0.00 minutes
	total time  =          0 seconds =       0.00 minutes
Total time:
	user time   =       0.24 seconds =       0.00 minutes
	system time =       0.05 seconds =       0.00 minutes
	total time  =          0 seconds =       0.00 minutes

*** tstart() called on cqc05
*** at Thu Aug 20 19:56:11 2020

            **************************
            *                        *
            *        CCENERGY        *
            *                        *
            **************************

    Nuclear Rep. energy (wfn)     =    0.000000000000000
    SCF energy          (wfn)     =  -24.530573774338748
    Reference energy    (file100) =  -24.530573774338738

    Input parameters:
    -----------------
    Wave function   =     CCSD
    Reference wfn   =     UHF
    Brueckner       =     No
    Memory (Mbytes) =     250000.0
    Maxiter         =     50
    R_Convergence   =     1.0e-07
    E_Convergence   =     1.0e-06
    Restart         =     Yes
    DIIS            =     Yes
    AO Basis        =     NONE
    ABCD            =     NEW
    Cache Level     =     2
    Cache Type      =     LRU
    Print Level     =     1
    Num. of threads =     4
    # Amps to Print =     10
    Print MP2 Amps? =     No
    Analyze T2 Amps =     No
    Print Pair Ener =     No
    Local CC        =     No
    SCS-MP2         =     False
    SCSN-MP2        =     False
    SCS-CCSD        =     False

MP2 correlation energy -0.0370698236929814
                Solving CC Amplitude Equations
                ------------------------------
  Iter             Energy              RMS        T1Diag      D1Diag    New D1Diag    D2Diag
  ----     ---------------------    ---------   ----------  ----------  ----------   --------
     0        -0.037069823692981    0.000e+00    0.000000    0.000000    0.000000    0.000000
     1        -0.049930811632801    6.363e-02    0.007446    0.000000    0.000000    0.000000
     2        -0.059021952113228    3.125e-02    0.016848    0.000000    0.000000    0.000000
     3        -0.059480605768107    6.550e-03    0.019280    0.000000    0.000000    0.000000
     4        -0.059680187352650    1.167e-03    0.019495    0.000000    0.000000    0.000000
     5        -0.059597346206048    2.601e-04    0.019393    0.000000    0.000000    0.000000
     6        -0.059622343779066    8.736e-05    0.019407    0.000000    0.000000    0.000000
     7        -0.059620530674292    2.121e-05    0.019400    0.000000    0.000000    0.000000
     8        -0.059619123076991    4.643e-06    0.019398    0.000000    0.000000    0.000000
     9        -0.059619619844921    1.791e-06    0.019398    0.000000    0.000000    0.000000
    10        -0.059619609814389    3.504e-07    0.019398    0.000000    0.000000    0.000000
    11        -0.059619607797873    1.227e-07    0.019398    0.000000    0.000000    0.000000
    12        -0.059619607798779    2.983e-08    0.019398    0.000000    0.000000    0.000000
    12        -0.059619607798779    2.983e-08    0.019398    0.000000    0.000000    0.000000

    Iterations converged.

    CCSD corr. energy   =   -0.059619607798779
    PPL corr. energy    =    0.024071812246198
    OS PPL corr. energy =    0.023483982792931
    SS PPL corr. energy =    0.000587829453267
    Largest TIA Amplitudes:
              0   1        -0.0204442432
              0   4         0.0156613042
              1  15        -0.0083278281
              0   3         0.0063087549
              1  16        -0.0053622827
              0   0        -0.0039608833

    Largest Tia Amplitudes:
              0   0         0.0134321378
              0   3        -0.0112915697
              0   5         0.0019237004
              0   2        -0.0006458916

    Largest TIJAB Amplitudes:
      1   0  16   3        -0.0277098818
      1   0  16   0         0.0184249602
      1   0  13  10        -0.0139777777
      1   0  18   6        -0.0139777777
      1   0  12  10        -0.0138167315
      1   0  17   6        -0.0138167315
      1   0  13  11         0.0132001606
      1   0  18   7         0.0132001606
      1   0  15   3        -0.0131177920
      1   0  12  11         0.0115461991

    Largest TIjAb Amplitudes:
      0   0  13  13         0.1099129584
      0   0  18  19         0.1099129584
      0   0  12  13         0.1067858992
      0   0  17  19         0.1067858992
      0   0  13  12         0.0909600163
      0   0  18  18         0.0909600163
      0   0  12  12         0.0896356022
      0   0  17  18         0.0896356022
      0   0  14  13         0.0560728052
      0   0  19  19         0.0560728052

    SCF energy       (wfn)                    =  -24.530573774338748
    Reference energy (file100)                =  -24.530573774338738

    Opposite-spin MP2 correlation energy      =   -0.034524204939797
    Same-spin MP2 correlation energy          =   -0.002545618753185
    MP2 correlation energy                    =   -0.037069823692981
      * MP2 total energy                      =  -24.567643598031719

    Opposite-spin CCSD correlation energy     =   -0.056603780321998
    Same-spin CCSD correlation energy         =   -0.003015827383764
    CCSD correlation energy                   =   -0.059619607798779
      * CCSD total energy                     =  -24.590193382137517

*** tstop() called on cqc05 at Thu Aug 20 19:56:12 2020
Module time:
	user time   =       0.18 seconds =       0.00 minutes
	system time =       0.21 seconds =       0.00 minutes
	total time  =          1 seconds =       0.02 minutes

*** Psi4 exiting successfully. Buy a developer a beer!
