                               Psi4 1.4a3.dev88

  ==> Input File <==

--------------------------------------------------------------------------
# Any line starting with the # character is a comment line
memory 250000 mb
molecule molecule{
-1 1
P          0.0000000000        0.0000000000        0.0604223492
H          0.0000000000        1.0258075143       -0.9283823155
H          0.0000000000       -1.0258075143       -0.9283823155
}

set {
  reference rhf
  basis aug-cc-pV(Q+d)Z
  scf_type OUT_OF_CORE
  freeze_core true
}

energy('ccsd(t)')
--------------------------------------------------------------------------

    Molecular point group: c2v

    Geometry (in Angstrom), charge = -1, multiplicity = 1:

       Center              X                  Y                   Z               Mass
    ------------   -----------------  -----------------  -----------------  -----------------
         P           -0.000000000000     0.000000000000     0.060415874716    30.973761998420
         H           -0.000000000000     1.025807514300    -0.928388789984     1.007825032230
         H            0.000000000000    -1.025807514300    -0.928388789984     1.007825032230

  Charge       = -1
  Multiplicity = 1
  Basis Set: AUG-CC-PV(Q+D)Z
    Blend: AUG-CC-PV(Q+D)Z

    Orbital Energies [Eh]
    ---------------------

    Doubly Occupied:

       1A1   -79.676076     2A1    -7.217866     1B2    -5.112085
       3A1    -5.111316     1B1    -5.110685     4A1    -0.560827
       2B2    -0.270428     5A1    -0.165273     2B1    -0.045187

  @RHF Final Energy:  -341.89406330952630

   => Energetics <=

    Nuclear Repulsion Energy =             11.4001765894548441
    One-Electron Energy =                -500.0489972775243928
    Two-Electron Energy =                 146.7547573785433030
    Total Energy =                       -341.8940633095262456

  Dipole Moment: [D]
     X:     0.0000      Y:     0.0000      Z:    -0.3559     Total:     0.3559

      * MP2 total energy                      = -342.086748140758459
      * CCSD total energy                     = -342.106759426399492
      * CCSD(T) total energy                  = -342.117047970282442
*** Psi4 exiting successfully. Buy a developer a beer!
