                               Psi4 1.4a3.dev88

  ==> Input File <==

--------------------------------------------------------------------------
# Any line starting with the # character is a comment line
memory 250000 mb
molecule molecule{
-1 1
P          0.0000000000        0.0000000000        0.0604223492
H          0.0000000000        1.0258075143       -0.9283823155
H          0.0000000000       -1.0258075143       -0.9283823155
}

set {
  reference rhf
  basis aug-cc-pV(5+d)Z
  scf_type OUT_OF_CORE
  freeze_core true
}

energy('ccsd(t)')
--------------------------------------------------------------------------

    Molecular point group: c2v

    Geometry (in Angstrom), charge = -1, multiplicity = 1:

       Center              X                  Y                   Z               Mass
    ------------   -----------------  -----------------  -----------------  -----------------
         P           -0.000000000000     0.000000000000     0.060415874716    30.973761998420
         H           -0.000000000000     1.025807514300    -0.928388789984     1.007825032230
         H            0.000000000000    -1.025807514300    -0.928388789984     1.007825032230

  Charge       = -1
  Multiplicity = 1
  Basis Set: AUG-CC-PV(5+D)Z
    Blend: AUG-CC-PV(5+D)Z

    Orbital Energies [Eh]
    ---------------------

    Doubly Occupied:

       1A1   -79.676276     2A1    -7.218010     1B2    -5.112096
       3A1    -5.111484     1B1    -5.110981     4A1    -0.560964
       2B2    -0.270614     5A1    -0.165502     2B1    -0.045284

  @RHF Final Energy:  -341.89463077281914

   => Energetics <=

    Nuclear Repulsion Energy =             11.4001765894548441
    One-Electron Energy =                -500.0471913378345334
    Two-Electron Energy =                 146.7523839755605195
    Total Energy =                       -341.8946307728191414

  Dipole Moment: [D]
     X:     0.0000      Y:     0.0000      Z:    -0.3531     Total:     0.3531

      * MP2 total energy                      = -342.092002018808444
      * CCSD total energy                     = -342.109924419860477
      * CCSD(T) total energy                  = -342.120489986553423
*** Psi4 exiting successfully. Buy a developer a beer!
