                               Psi4 1.4a3.dev88

  ==> Input File <==

--------------------------------------------------------------------------
# Any line starting with the # character is a comment line
memory 250000 mb
molecule molecule{
-1 1
P          0.0000000000        0.0000000000        0.0604223492
H          0.0000000000        1.0258075143       -0.9283823155
H          0.0000000000       -1.0258075143       -0.9283823155
}

set {
  reference rhf
  basis aug-cc-pV(d+d)Z
  scf_type OUT_OF_CORE
  freeze_core true
}

energy('ccsd(t)')
--------------------------------------------------------------------------

    Molecular point group: c2v

    Geometry (in Angstrom), charge = -1, multiplicity = 1:

       Center              X                  Y                   Z               Mass
    ------------   -----------------  -----------------  -----------------  -----------------
         P           -0.000000000000     0.000000000000     0.060415874716    30.973761998420
         H           -0.000000000000     1.025807514300    -0.928388789984     1.007825032230
         H            0.000000000000    -1.025807514300    -0.928388789984     1.007825032230

  Charge       = -1
  Multiplicity = 1
  Basis Set: AUG-CC-PV(D+D)Z
    Blend: AUG-CC-PV(D+D)Z

    Orbital Energies [Eh]
    ---------------------

    Doubly Occupied:

       1A1   -79.683070     2A1    -7.222348     1B2    -5.117045
       3A1    -5.116039     1B1    -5.114610     4A1    -0.561382
       2B2    -0.269211     5A1    -0.164298     2B1    -0.044047

  @RHF Final Energy:  -341.88013888339970

   => Energetics <=

    Nuclear Repulsion Energy =             11.4001765894548441
    One-Electron Energy =                -499.9765342461245154
    Two-Electron Energy =                 146.6962187732699476
    Total Energy =                       -341.8801388833996953

  Dipole Moment: [D]
     X:     0.0000      Y:     0.0000      Z:    -0.3930     Total:     0.3930

      * MP2 total energy                      = -342.030048950659420
      * CCSD total energy                     = -342.054673135100074
      * CCSD(T) total energy                  = -342.061013233938013
*** Psi4 exiting successfully. Buy a developer a beer!
