                               Psi4 1.4a3.dev88

  ==> Input File <==

--------------------------------------------------------------------------
# Any line starting with the # character is a comment line
memory 250000 mb
molecule molecule{
-1 1
P          0.0000000000        0.0000000000        0.0604223492
H          0.0000000000        1.0258075143       -0.9283823155
H          0.0000000000       -1.0258075143       -0.9283823155
}

set {
  reference rhf
  basis aug-cc-pV(t+d)Z
  scf_type OUT_OF_CORE
  freeze_core true
}

energy('ccsd(t)')
--------------------------------------------------------------------------

    Molecular point group: c2v

    Geometry (in Angstrom), charge = -1, multiplicity = 1:

       Center              X                  Y                   Z               Mass
    ------------   -----------------  -----------------  -----------------  -----------------
         P           -0.000000000000     0.000000000000     0.060415874716    30.973761998420
         H           -0.000000000000     1.025807514300    -0.928388789984     1.007825032230
         H            0.000000000000    -1.025807514300    -0.928388789984     1.007825032230

  Charge       = -1
  Multiplicity = 1
  Basis Set: AUG-CC-PV(T+D)Z
    Blend: AUG-CC-PV(T+D)Z

    Orbital Energies [Eh]
    ---------------------

    Doubly Occupied:

       1A1   -79.676165     2A1    -7.217839     1B2    -5.111783
       3A1    -5.111072     1B1    -5.110373     4A1    -0.560576
       2B2    -0.269995     5A1    -0.164872     2B1    -0.044967

  @RHF Final Energy:  -341.89105470441831

   => Energetics <=

    Nuclear Repulsion Energy =             11.4001765894548441
    One-Electron Energy =                -500.0471788158225195
    Two-Electron Energy =                 146.7559475219493663
    Total Energy =                       -341.8910547044183659

  Dipole Moment: [D]
     X:     0.0000      Y:     0.0000      Z:    -0.3684     Total:     0.3684

      * MP2 total energy                      = -342.072864494463147
      * CCSD total energy                     = -342.095790558679880
      * CCSD(T) total energy                  = -342.105268551453491
*** Psi4 exiting successfully. Buy a developer a beer!
