                               Psi4 1.4a3.dev88

  ==> Input File <==

--------------------------------------------------------------------------
# Any line starting with the # character is a comment line
memory 250000 mb
molecule molecule{
0 2
P          0.0000000000        0.0000000000        0.0599907894
H          0.0000000000       -1.0156462266       -0.9217514498
H          0.0000000000        1.0156462266       -0.9217514498
}

set {
  reference uhf
  basis aug-cc-pV(d+d)Z
  scf_type OUT_OF_CORE
  freeze_core true
}

energy('ccsd(t)')
--------------------------------------------------------------------------

    Molecular point group: c2v

    Geometry (in Angstrom), charge = 0, multiplicity = 2:

       Center              X                  Y                   Z               Mass
    ------------   -----------------  -----------------  -----------------  -----------------
         P            0.000000000000     0.000000000000     0.059984361163    30.973761998420
         H            0.000000000000    -1.015646226600    -0.921757878037     1.007825032230
         H           -0.000000000000     1.015646226600    -0.921757878037     1.007825032230

  Charge       = 0
  Multiplicity = 2
  Basis Set: AUG-CC-PV(D+D)Z
    Blend: AUG-CC-PV(D+D)Z

    Orbital Energies [Eh]
    ---------------------

    Alpha Occupied:

       1A1   -79.963586     2A1    -7.504876     1B1    -5.409131
       1B2    -5.395970     3A1    -5.394232     4A1    -0.858940
       2B2    -0.525769     5A1    -0.430666     2B1    -0.375423

    Alpha Virtual:

       6A1     0.036835     3B2     0.070047     7A1     0.099250
       4B2     0.099668     3B1     0.102287     8A1     0.165796
       5B2     0.207347     9A1     0.207484     1A2     0.259523
      10A1     0.263963     4B1     0.264295    11A1     0.396833
       6B2     0.399320     7B2     0.477637     2A2     0.481963
      12A1     0.484975     5B1     0.488711    13A1     0.545218
       8B2     0.589575     6B1     0.710554    14A1     0.751957
      15A1     0.801257     9B2     0.821490     3A2     0.831784
       7B1     0.840467    16A1     0.853547    10B2     0.958610
      17A1     1.068566    11B2     1.212565    18A1     1.296637
      12B2     1.803282     4A2     1.867658     8B1     1.915914
      19A1     1.990780    20A1     2.313075    13B2     2.345881
       5A2     4.361841     9B1     4.367510    21A1     4.384421
      22A1     4.408997    14B2     4.493519

    Beta Occupied:

       1A1   -79.956688     2A1    -7.496567     1B2    -5.391172
       3A1    -5.390763     1B1    -5.377611     4A1    -0.789787
       2B2    -0.519237     5A1    -0.407454

    Beta Virtual:

       2B1     0.021189     6A1     0.038648     3B2     0.070540
       4B2     0.100926     7A1     0.101527     3B1     0.141345
       8A1     0.174064     5B2     0.211771     9A1     0.245187
      10A1     0.269035     1A2     0.297007     4B1     0.300887
       6B2     0.401217    11A1     0.418475     7B2     0.477382
      12A1     0.486460     2A2     0.489475     5B1     0.505918
      13A1     0.559597     8B2     0.596767    14A1     0.779134
       6B1     0.780209    15A1     0.808636     9B2     0.832243
      16A1     0.862640     3A2     0.880814     7B1     0.887320
      10B2     0.960693    17A1     1.088832    11B2     1.215810
      18A1     1.318505    12B2     1.800986     4A2     1.872607
       8B1     1.922069    19A1     1.989836    20A1     2.316893
      13B2     2.349342     5A2     4.369747     9B1     4.375055
      21A1     4.393346    22A1     4.410940    14B2     4.494926

    Final Occupation by Irrep:
             A1    A2    B1    B2
    DOCC [     5,    0,    1,    2 ]
    SOCC [     0,    0,    1,    0 ]

  @UHF Final Energy:  -341.87799924057043

   => Energetics <=

    Nuclear Repulsion Energy =             11.4991145729382254
    One-Electron Energy =                -495.5663578426118647
    Two-Electron Energy =                 142.1892440291032358
    Total Energy =                       -341.8779992405704320

  UHF NO Occupations:
  HONO-2 :    2 B2 1.9994002
  HONO-1 :    5 A1 1.9918654
  HONO-0 :    2 B1 1.0000000
  LUNO+0 :    6 A1 0.0081346
  LUNO+1 :    3 B2 0.0005998
  LUNO+2 :    7 A1 0.0003290
  LUNO+3 :    3 B1 0.0000007

Computation Completed

Properties will be evaluated at   0.000000,   0.000000,   0.000000 [a0]

Properties computed using the SCF density matrix

  Nuclear Dipole Moment: [e a0]
     X:     0.0000      Y:     0.0000      Z:    -1.7834

  Electronic Dipole Moment: [e a0]
     X:     0.0000      Y:     0.0000      Z:     1.5205

  Dipole Moment: [e a0]
     X:     0.0000      Y:     0.0000      Z:    -0.2629     Total:     0.2629

  Dipole Moment: [D]
     X:     0.0000      Y:     0.0000      Z:    -0.6683     Total:     0.6683

*** tstop() called on n412-039.vsc4.prov at Tue Jan 26 18:34:12 2021
Module time:
	user time   =      25.16 seconds =       0.42 minutes
	system time =       1.65 seconds =       0.03 minutes
	total time  =          3 seconds =       0.05 minutes
Total time:
	user time   =      25.16 seconds =       0.42 minutes
	system time =       1.65 seconds =       0.03 minutes
	total time  =          3 seconds =       0.05 minutes

*** tstart() called on n412-039.vsc4.prov
*** at Tue Jan 26 18:34:12 2021

	Wfn Parameters:
	--------------------
	Wavefunction         = CCSD_T
	Number of irreps     = 4
	Number of MOs        = 50
	Number of active MOs = 45
	AO-Basis             = NONE
	Semicanonical        = false
	Reference            = UHF
	Print Level          = 1

	IRREP	# MOs	# FZDC	# DOCC	# SOCC	# VIRT	# FZVR
	-----	-----	------	------	------	------	------
	 A1	   22	    3	    2	    0	    17	    0
	 A2	   5	    0	    0	    0	    5	    0
	 B1	   9	    1	    0	    1	    7	    0
	 B2	   14	    1	    1	    0	    12	    0
	Transforming integrals...
	IWL integrals will be deleted.
	(OO|OO)...
	Presorting SO-basis two-electron integrals.
	Sorting File: SO Ints (nn|nn) nbuckets = 1
	Constructing frozen core operators
	Starting AA/AB first half-transformation.
	Sorting AA/AB half-transformed integrals.
	Starting BB first half-transformation.
	Sorting BB half-transformed integrals.
	First half integral transformation complete.
	Starting AA second half-transformation.
	Starting AB second half-transformation.
	Starting BB second half-transformation.
	Two-electron integral transformation complete.
	(OO|OV)...
	Starting AA second half-transformation.
	Starting AB second half-transformation.
	Starting BB second half-transformation.
	Two-electron integral transformation complete.
	(OO|VV)...
	Starting AA second half-transformation.
	Starting AB second half-transformation.
	Starting BB second half-transformation.
	Two-electron integral transformation complete.
	(OV|OO)...
	Starting AA/AB first half-transformation.
	Sorting AA/AB half-transformed integrals.
	Starting BB first half-transformation.
	Sorting BB half-transformed integrals.
	First half integral transformation complete.
	Starting AA second half-transformation.
	Starting AB second half-transformation.
	Starting BB second half-transformation.
	Two-electron integral transformation complete.
	(OV|OV)...
	Starting AA second half-transformation.
	Starting AB second half-transformation.
	Starting BB second half-transformation.
	Two-electron integral transformation complete.
	(OV|VV)...
	Starting AA second half-transformation.
	Starting AB second half-transformation.
	Starting BB second half-transformation.
	Two-electron integral transformation complete.
	(VV|OO)...
	Starting AA/AB first half-transformation.
	Sorting AA/AB half-transformed integrals.
	Starting BB first half-transformation.
	Sorting BB half-transformed integrals.
	First half integral transformation complete.
	Starting AA second half-transformation.
	Starting AB second half-transformation.
	Starting BB second half-transformation.
	Two-electron integral transformation complete.
	(VV|OV)...
	Starting AA second half-transformation.
	Starting AB second half-transformation.
	Starting BB second half-transformation.
	Two-electron integral transformation complete.
	(VV|VV)...
	Starting AA second half-transformation.
	Starting AB second half-transformation.
	Starting BB second half-transformation.
	Two-electron integral transformation complete.
	Frozen core energy     =   -341.84899913222370

	Size of irrep 0 of <AB|CD> integrals:      0.054 (MW) /      0.434 (MB)
	Size of irrep 1 of <AB|CD> integrals:      0.029 (MW) /      0.228 (MB)
	Size of irrep 2 of <AB|CD> integrals:      0.032 (MW) /      0.256 (MB)
	Size of irrep 3 of <AB|CD> integrals:      0.057 (MW) /      0.457 (MB)
	Total:                                     0.172 (MW) /      1.376 (MB)

	Size of irrep 0 of <ab|cd> integrals:      0.058 (MW) /      0.461 (MB)
	Size of irrep 1 of <ab|cd> integrals:      0.033 (MW) /      0.262 (MB)
	Size of irrep 2 of <ab|cd> integrals:      0.038 (MW) /      0.307 (MB)
	Size of irrep 3 of <ab|cd> integrals:      0.060 (MW) /      0.476 (MB)
	Total:                                     0.188 (MW) /      1.507 (MB)

	Size of irrep 0 of <Ab|Cd> integrals:      0.264 (MW) /      2.114 (MB)
	Size of irrep 1 of <Ab|Cd> integrals:      0.122 (MW) /      0.980 (MB)
	Size of irrep 2 of <Ab|Cd> integrals:      0.141 (MW) /      1.125 (MB)
	Size of irrep 3 of <Ab|Cd> integrals:      0.233 (MW) /      1.866 (MB)
	Total:                                     0.761 (MW) /      6.085 (MB)

	Size of irrep 0 of <IA|BC> integrals:      0.027 (MW) /      0.215 (MB)
	Size of irrep 1 of <IA|BC> integrals:      0.010 (MW) /      0.078 (MB)
	Size of irrep 2 of <IA|BC> integrals:      0.013 (MW) /      0.103 (MB)
	Size of irrep 3 of <IA|BC> integrals:      0.022 (MW) /      0.176 (MB)
	Total:                                     0.072 (MW) /      0.572 (MB)

	Size of irrep 0 of <ia|bc> integrals:      0.024 (MW) /      0.192 (MB)
	Size of irrep 1 of <ia|bc> integrals:      0.007 (MW) /      0.052 (MB)
	Size of irrep 2 of <ia|bc> integrals:      0.008 (MW) /      0.066 (MB)
	Size of irrep 3 of <ia|bc> integrals:      0.020 (MW) /      0.160 (MB)
	Total:                                     0.059 (MW) /      0.470 (MB)

	Size of irrep 0 of <Ia|Bc> integrals:      0.028 (MW) /      0.222 (MB)
	Size of irrep 1 of <Ia|Bc> integrals:      0.011 (MW) /      0.084 (MB)
	Size of irrep 2 of <Ia|Bc> integrals:      0.014 (MW) /      0.114 (MB)
	Size of irrep 3 of <Ia|Bc> integrals:      0.022 (MW) /      0.178 (MB)
	Total:                                     0.075 (MW) /      0.598 (MB)

	Size of irrep 0 of <iA|bC> integrals:      0.024 (MW) /      0.189 (MB)
	Size of irrep 1 of <iA|bC> integrals:      0.006 (MW) /      0.048 (MB)
	Size of irrep 2 of <iA|bC> integrals:      0.007 (MW) /      0.057 (MB)
	Size of irrep 3 of <iA|bC> integrals:      0.020 (MW) /      0.158 (MB)
	Total:                                     0.057 (MW) /      0.452 (MB)

	Size of irrep 0 of tIjAb amplitudes:       0.003 (MW) /      0.021 (MB)
	Size of irrep 1 of tIjAb amplitudes:       0.000 (MW) /      0.003 (MB)
	Size of irrep 2 of tIjAb amplitudes:       0.001 (MW) /      0.006 (MB)
	Size of irrep 3 of tIjAb amplitudes:       0.002 (MW) /      0.015 (MB)
	Total:                                     0.006 (MW) /      0.045 (MB)

	Nuclear Rep. energy          =     11.49911457293823
	SCF energy                   =   -341.87799924057043
	One-electron energy          =    -19.14895513992613
	Two-electron (AA) energy     =      1.93507164114124
	Two-electron (BB) energy     =      0.92132408957695
	Two-electron (AB) energy     =      4.76444472792360
	Two-electron energy          =      7.62084045864179
	Reference energy             =   -341.87799924056981

*** tstop() called on n412-039.vsc4.prov at Tue Jan 26 18:34:14 2021
Module time:
	user time   =       0.20 seconds =       0.00 minutes
	system time =       0.22 seconds =       0.00 minutes
	total time  =          2 seconds =       0.03 minutes
Total time:
	user time   =      25.36 seconds =       0.42 minutes
	system time =       1.87 seconds =       0.03 minutes
	total time  =          5 seconds =       0.08 minutes
            **************************
            *                        *
            *        CCENERGY        *
            *                        *
            **************************

    Nuclear Rep. energy (wfn)     =   11.499114572938225
    SCF energy          (wfn)     = -341.877999240570432
    Reference energy    (file100) = -341.877999240569807

    Input parameters:
    -----------------
    Wave function   =     CCSD_T
    Reference wfn   =     UHF
    Brueckner       =     No
    Memory (Mbytes) =     250000.0
    Maxiter         =     50
    R_Convergence   =     1.0e-07
    E_Convergence   =     1.0e-06
    Restart         =     Yes
    DIIS            =     Yes
    AO Basis        =     NONE
    ABCD            =     NEW
    Cache Level     =     2
    Cache Type      =     LRU
    Print Level     =     1
    Num. of threads =     48
    # Amps to Print =     10
    Print MP2 Amps? =     No
    Analyze T2 Amps =     No
    Print Pair Ener =     No
    Local CC        =     No
    SCS-MP2         =     False
    SCSN-MP2        =     False
    SCS-CCSD        =     False

MP2 correlation energy -0.1134603422730218
                Solving CC Amplitude Equations
                ------------------------------
  Iter             Energy              RMS        T1Diag      D1Diag    New D1Diag    D2Diag
  ----     ---------------------    ---------   ----------  ----------  ----------   --------
     0        -0.113460342273022    0.000e+00    0.000000    0.000000    0.000000    0.000000
     1        -0.133319628396406    5.676e-02    0.010515    0.000000    0.000000    0.000000
     2        -0.140628347029406    2.203e-02    0.017692    0.000000    0.000000    0.000000
     3        -0.141045420734388    6.175e-03    0.020400    0.000000    0.000000    0.000000
     4        -0.141053800327063    1.709e-03    0.020978    0.000000    0.000000    0.000000
     5        -0.141046775450073    6.155e-04    0.021150    0.000000    0.000000    0.000000
     6        -0.141045067983513    1.809e-04    0.021163    0.000000    0.000000    0.000000
     7        -0.141047469280609    5.460e-05    0.021161    0.000000    0.000000    0.000000
     8        -0.141047857744882    1.698e-05    0.021161    0.000000    0.000000    0.000000
     9        -0.141047704535882    4.850e-06    0.021160    0.000000    0.000000    0.000000
    10        -0.141047707619890    1.853e-06    0.021160    0.000000    0.000000    0.000000
    11        -0.141047711658481    6.288e-07    0.021160    0.000000    0.000000    0.000000
    12        -0.141047722660694    2.454e-07    0.021160    0.000000    0.000000    0.000000
    13        -0.141047719035610    8.351e-08    0.021160    0.000000    0.000000    0.000000

    Iterations converged.

    Largest TIA Amplitudes:
              1   3        -0.0195389866
              2  23         0.0160613971
              1   5        -0.0124878086
              3  31         0.0096550411
              2  22        -0.0088916846
              1  11         0.0084079656
              3  30        -0.0083168813
              3  37         0.0079389064
              1   8         0.0067980582
              1   2         0.0060608622

    Largest Tia Amplitudes:
              1   4         0.0225540630
              0   3        -0.0162219879
              2  32         0.0132619772
              2  31        -0.0113524075
              1   3        -0.0089513872
              0   8         0.0085851027
              0   4         0.0085143575
              1  10        -0.0073770128
              0   7         0.0060729241
              2  35         0.0058402767

    Largest TIJAB Amplitudes:
      3   2  17   3        -0.0267243919
      2   1  23   3        -0.0252304996
      3   1  31   4        -0.0232139958
      2   1  23   4         0.0208479246
      2   1  31  17         0.0186954652
      3   1  30   4         0.0162946738
      3   2  31  23         0.0153477761
      3   2  19   3        -0.0140058854
      2   1  26   3        -0.0130007338
      3   2  17   8         0.0128894955

    Largest Tijab Amplitudes:
      2   1  32   4         0.0203885381
      2   1  31   4        -0.0135239405
      1   0  24  22        -0.0106702255
      2   1  32   9         0.0097641449
      2   1  24  17        -0.0095952450
      2   1  32   3         0.0090998235
      2   1  35   4         0.0088521103
      2   1  32  10        -0.0087589258
      2   0  22  17        -0.0081824964
      1   0  24  23        -0.0080245660

    Largest TIjAb Amplitudes:
      1   1  31  32         0.0478422825
      2   0   3  22         0.0355786595
      3   2  31  32        -0.0340021079
      1   1   4   4         0.0335052446
      1   1  30  32        -0.0305320727
      1   1  31  31        -0.0296809969
      2   1  17  32         0.0290085001
      3   2   3   3        -0.0272547733
      1   1  23  24        -0.0269698226
      2   0   3  23         0.0264040133

    SCF energy       (wfn)                    = -341.877999240570432
    Reference energy (file100)                = -341.877999240569807

    Opposite-spin MP2 correlation energy      =   -0.092774310874964
    Same-spin MP2 correlation energy          =   -0.020686031398058
    Singles MP2 correlation energy            =   -0.000000000000000
    MP2 correlation energy                    =   -0.113460342273022
      * MP2 total energy                      = -341.991459582842822

    Opposite-spin CCSD correlation energy     =   -0.118880780064877
    Same-spin CCSD correlation energy         =   -0.022166938970733
    Singles CCSD correlation energy           =   -0.000000000000000
    CCSD correlation energy                   =   -0.141047719035610
      * CCSD total energy                     = -342.019046959605419

            **************************
            *                        *
            *        CCTRIPLES       *
            *                        *
            **************************

    Wave function   =    CCSD_T
    Reference wfn   =      UHF

      * CCSD(T) total energy                     = -342.022838351149517
*** Psi4 exiting successfully. Buy a developer a beer!
