                               Psi4 1.4a3.dev88

  ==> Input File <==

--------------------------------------------------------------------------
# Any line starting with the # character is a comment line
memory 250000 mb
molecule molecule{
0 4
N          0.0000000000        0.0000000000        0.0000000000
}

set {
  reference uhf
  basis aug-cc-pv(5+d)z
  scf_type OUT_OF_CORE
  freeze_core true
}

energy('ccsd(t)')
--------------------------------------------------------------------------

    Molecular point group: d2h
    Geometry (in Angstrom), charge = 0, multiplicity = 4:

       Center              X                  Y                   Z               Mass
    ------------   -----------------  -----------------  -----------------  -----------------
         N            0.000000000000     0.000000000000     0.000000000000    14.003074004430

  Charge       = 0
  Multiplicity = 4
  Basis Set: AUG-CC-PV(5+D)Z
    Blend: AUG-CC-PV(5+D)Z

    Orbital Energies [Eh]
    ---------------------

    Alpha Occupied:

       1Ag   -15.670741     2Ag    -1.162980     1B3u   -0.570924
       1B1u   -0.570924     1B2u   -0.570924

    Alpha Virtual:

       2B3u    0.088430     2B1u    0.088430     2B2u    0.088430
       3Ag     0.095616     1B3g    0.296872     4Ag     0.296872
       1B1g    0.296872     1B2g    0.296872     5Ag     0.296872
       3B3u    0.400054     3B1u    0.400054     3B2u    0.400054
       6Ag     0.562675     4B3u    0.782051     4B2u    0.782051
       4B1u    0.782051     5B3u    0.782051     1Au     0.782051
       5B1u    0.782051     5B2u    0.782051     7Ag     0.932403
       2B3g    0.932403     2B2g    0.932403     2B1g    0.932403
       8Ag     0.932403     6B3u    1.323180     6B2u    1.323180
       6B1u    1.323180     9Ag     2.154059     3B2g    2.154059
       3B1g    2.154059    10Ag     2.154059     3B3g    2.154059
       4B2g    2.154059     4B1g    2.154059    11Ag     2.154059
       4B3g    2.154059    12Ag     2.204844     7B1u    2.297816
       7B2u    2.297816     2Au     2.297816     7B3u    2.297816
       8B2u    2.297816     8B1u    2.297816     8B3u    2.297816
      13Ag     2.467658     5B2g    2.467658     5B1g    2.467658
      14Ag     2.467658     5B3g    2.467658     9B3u    3.829372
       9B2u    3.829372     9B1u    3.829372    10B3u    4.730927
      10B2u    4.730927    10B1u    4.730927     3Au     4.730927
      11B3u    4.730927    11B2u    4.730927    11B1u    4.730927
       4Au     4.730927    12B3u    4.730927    12B1u    4.730927
      12B2u    4.730927    15Ag     5.645989     6B3g    5.645989
       6B1g    5.645989     6B2g    5.645989    16Ag     5.645989
       7B3g    5.645989     7B1g    5.645989     7B2g    5.645989
      17Ag     5.645989    13B2u    5.785883    13B1u    5.785883
       5Au     5.785883    13B3u    5.785883    14B2u    5.785883
      14B1u    5.785883    14B3u    5.785883    18Ag     6.494440
       8B2g    6.494440     8B1g    6.494440    19Ag     6.494440
       8B3g    6.494440    20Ag     7.961800    15B3u   12.177448
      15B1u   12.177448    15B2u   12.177448    16B1u   12.375181
      16B2u   12.375181     6Au    12.375181    16B3u   12.375181
      17B2u   12.375181    17B1u   12.375181     7Au    12.375181
      17B3u   12.375181    18B2u   12.375181    18B1u   12.375181
      18B3u   12.375181    19B2u   14.489350    19B1u   14.489350
       8Au    14.489350    19B3u   14.489350    20B2u   14.489350
      20B1u   14.489350    20B3u   14.489350    21Ag    14.613715
       9B3g   14.613715     9B2g   14.613715     9B1g   14.613715
      22Ag    14.613715    10B3g   14.613715    10B2g   14.613715
      10B1g   14.613715    23Ag    14.613715    24Ag    17.450903
      11B3g   17.450903    11B1g   17.450903    11B2g   17.450903
      25Ag    17.450903    26Ag    46.203574

    Beta Occupied:

       1Ag   -15.580972     2Ag    -0.725818

    Beta Virtual:

       1B3u    0.063549     1B1u    0.063549     1B2u    0.063549
       3Ag     0.108801     2B3u    0.166136     2B1u    0.166136
       2B2u    0.166136     4Ag     0.306822     1B1g    0.306822
       1B2g    0.306822     5Ag     0.306822     1B3g    0.306822
       3B1u    0.503112     3B2u    0.503112     3B3u    0.503112
       6Ag     0.619937     4B3u    0.790772     4B2u    0.790772
       4B1u    0.790772     5B3u    0.790772     1Au     0.790772
       5B1u    0.790772     5B2u    0.790772     7Ag     1.008079
       2B2g    1.008079     2B1g    1.008079     8Ag     1.008079
       2B3g    1.008079     6B2u    1.449873     6B1u    1.449873
       6B3u    1.449873     9Ag     2.169798     3B2g    2.169798
       3B1g    2.169798     3B3g    2.169798    10Ag     2.169798
       4B2g    2.169798     4B1g    2.169798    11Ag     2.169798
       4B3g    2.169798    12Ag     2.307653     7B3u    2.345294
       7B2u    2.345294     7B1u    2.345294     2Au     2.345294
       8B3u    2.345294     8B1u    2.345294     8B2u    2.345294
      13Ag     2.609748     5B3g    2.609748     5B2g    2.609748
       5B1g    2.609748    14Ag     2.609748     9B2u    3.951865
       9B1u    3.951865     9B3u    3.951865    10B3u    4.752339
      10B2u    4.752339    10B1u    4.752339     3Au     4.752339
      11B3u    4.752339    11B2u    4.752339    11B1u    4.752339
       4Au     4.752339    12B3u    4.752339    12B1u    4.752339
      12B2u    4.752339    15Ag     5.692335     6B1g    5.692335
       6B2g    5.692335     6B3g    5.692335    16Ag     5.692335
       7B1g    5.692335     7B2g    5.692335    17Ag     5.692335
       7B3g    5.692335    13B2u    5.872465    13B1u    5.872465
       5Au     5.872465    13B3u    5.872465    14B2u    5.872465
      14B1u    5.872465    14B3u    5.872465    18Ag     6.626946
       8B3g    6.626946     8B2g    6.626946     8B1g    6.626946
      19Ag     6.626946    20Ag     8.057434    15B1u   12.261501
      15B2u   12.261501    15B3u   12.261501    16B1u   12.420035
      16B2u   12.420035     6Au    12.420035    16B3u   12.420035
      17B2u   12.420035    17B1u   12.420035     7Au    12.420035
      17B3u   12.420035    18B2u   12.420035    18B1u   12.420035
      18B3u   12.420035    19B2u   14.573965    19B1u   14.573965
       8Au    14.573965    19B3u   14.573965    20B2u   14.573965
      20B1u   14.573965    20B3u   14.573965    21Ag    14.680373
       9B3g   14.680373     9B2g   14.680373     9B1g   14.680373
      10B3g   14.680373    22Ag    14.680373    10B2g   14.680373
      10B1g   14.680373    23Ag    14.680373    24Ag    17.534356
      11B3g   17.534356    11B1g   17.534356    11B2g   17.534356
      25Ag    17.534356    26Ag    46.240535

    Final Occupation by Irrep:
             Ag   B1g   B2g   B3g    Au   B1u   B2u   B3u
    DOCC [     2,    0,    0,    0,    0,    0,    0,    0 ]
    SOCC [     0,    0,    0,    0,    0,    1,    1,    1 ]

  @UHF Final Energy:   -54.40446908429229

   => Energetics <=

    Nuclear Repulsion Energy =              0.0000000000000000
    One-Electron Energy =                 -73.9556558022650279
    Two-Electron Energy =                  19.5511867179727332
    Total Energy =                        -54.4044690842922947

  UHF NO Occupations:
  HONO-2 :    1B3u 1.0000000
  HONO-1 :    1B1u 1.0000000
  HONO-0 :    1B2u 1.0000000
  LUNO+0 :    3 Ag 0.0039555
  LUNO+1 :    4 Ag 0.0000044
  LUNO+2 :    5 Ag 0.0000000
  LUNO+3 :    6 Ag 0.0000000

Computation Completed

Properties will be evaluated at   0.000000,   0.000000,   0.000000 [a0]

Properties computed using the SCF density matrix

  Nuclear Dipole Moment: [e a0]
     X:     0.0000      Y:     0.0000      Z:     0.0000

  Electronic Dipole Moment: [e a0]
     X:     0.0000      Y:     0.0000      Z:     0.0000

  Dipole Moment: [e a0]
     X:     0.0000      Y:     0.0000      Z:     0.0000     Total:     0.0000

  Dipole Moment: [D]
     X:     0.0000      Y:     0.0000      Z:     0.0000     Total:     0.0000

*** tstop() called on n412-041.vsc4.prov at Wed Jan 20 22:09:18 2021
Module time:
	user time   =      28.43 seconds =       0.47 minutes
	system time =       1.15 seconds =       0.02 minutes
	total time  =         16 seconds =       0.27 minutes
Total time:
	user time   =      28.43 seconds =       0.47 minutes
	system time =       1.15 seconds =       0.02 minutes
	total time  =         16 seconds =       0.27 minutes

*** tstart() called on n412-041.vsc4.prov
*** at Wed Jan 20 22:09:18 2021

	Wfn Parameters:
	--------------------
	Wavefunction         = CCSD_T
	Number of irreps     = 8
	Number of MOs        = 127
	Number of active MOs = 126
	AO-Basis             = NONE
	Semicanonical        = false
	Reference            = UHF
	Print Level          = 1

	IRREP	# MOs	# FZDC	# DOCC	# SOCC	# VIRT	# FZVR
	-----	-----	------	------	------	------	------
	 Ag	   26	    1	    1	    0	    24	    0
	 B1g	   11	    0	    0	    0	    11	    0
	 B2g	   11	    0	    0	    0	    11	    0
	 B3g	   11	    0	    0	    0	    11	    0
	 Au	   8	    0	    0	    0	    8	    0
	 B1u	   20	    0	    0	    1	    19	    0
	 B2u	   20	    0	    0	    1	    19	    0
	 B3u	   20	    0	    0	    1	    19	    0
	Transforming integrals...
	IWL integrals will be deleted.
	(OO|OO)...
	Presorting SO-basis two-electron integrals.
	Sorting File: SO Ints (nn|nn) nbuckets = 1
	Constructing frozen core operators
	Starting AA/AB first half-transformation.
	Sorting AA/AB half-transformed integrals.
	Starting BB first half-transformation.
	Sorting BB half-transformed integrals.
	First half integral transformation complete.
	Starting AA second half-transformation.
	Starting AB second half-transformation.
	Starting BB second half-transformation.
	Two-electron integral transformation complete.
	(OO|OV)...
	Starting AA second half-transformation.
	Starting AB second half-transformation.
	Starting BB second half-transformation.
	Two-electron integral transformation complete.
	(OO|VV)...
	Starting AA second half-transformation.
	Starting AB second half-transformation.
	Starting BB second half-transformation.
	Two-electron integral transformation complete.
	(OV|OO)...
	Starting AA/AB first half-transformation.
	Sorting AA/AB half-transformed integrals.
	Starting BB first half-transformation.
	Sorting BB half-transformed integrals.
	First half integral transformation complete.
	Starting AA second half-transformation.
	Starting AB second half-transformation.
	Starting BB second half-transformation.
	Two-electron integral transformation complete.
	(OV|OV)...
	Starting AA second half-transformation.
	Starting AB second half-transformation.
	Starting BB second half-transformation.
	Two-electron integral transformation complete.
	(OV|VV)...
	Starting AA second half-transformation.
	Starting AB second half-transformation.
	Starting BB second half-transformation.
	Two-electron integral transformation complete.
	(VV|OO)...
	Starting AA/AB first half-transformation.
	Sorting AA/AB half-transformed integrals.
	Starting BB first half-transformation.
	Sorting BB half-transformed integrals.
	First half integral transformation complete.
	Starting AA second half-transformation.
	Starting AB second half-transformation.
	Starting BB second half-transformation.
	Two-electron integral transformation complete.
	(VV|OV)...
	Starting AA second half-transformation.
	Starting AB second half-transformation.
	Starting BB second half-transformation.
	Two-electron integral transformation complete.
	(VV|VV)...
	Starting AA second half-transformation.
	Starting AB second half-transformation.
	Starting BB second half-transformation.
	Two-electron integral transformation complete.
	Frozen core energy     =    -44.73337212882234

	Size of irrep 0 of <AB|CD> integrals:      0.964 (MW) /      7.715 (MB)
	Size of irrep 1 of <AB|CD> integrals:      0.806 (MW) /      6.451 (MB)
	Size of irrep 2 of <AB|CD> integrals:      0.806 (MW) /      6.451 (MB)
	Size of irrep 3 of <AB|CD> integrals:      0.806 (MW) /      6.451 (MB)
	Size of irrep 4 of <AB|CD> integrals:      0.671 (MW) /      5.366 (MB)
	Size of irrep 5 of <AB|CD> integrals:      0.925 (MW) /      7.404 (MB)
	Size of irrep 6 of <AB|CD> integrals:      0.925 (MW) /      7.404 (MB)
	Size of irrep 7 of <AB|CD> integrals:      0.925 (MW) /      7.404 (MB)
	Total:                                     6.831 (MW) /     54.645 (MB)

	Size of irrep 0 of <ab|cd> integrals:      1.080 (MW) /      8.636 (MB)
	Size of irrep 1 of <ab|cd> integrals:      0.893 (MW) /      7.144 (MB)
	Size of irrep 2 of <ab|cd> integrals:      0.893 (MW) /      7.144 (MB)
	Size of irrep 3 of <ab|cd> integrals:      0.893 (MW) /      7.144 (MB)
	Size of irrep 4 of <ab|cd> integrals:      0.726 (MW) /      5.807 (MB)
	Size of irrep 5 of <ab|cd> integrals:      1.016 (MW) /      8.129 (MB)
	Size of irrep 6 of <ab|cd> integrals:      1.016 (MW) /      8.129 (MB)
	Size of irrep 7 of <ab|cd> integrals:      1.016 (MW) /      8.129 (MB)
	Total:                                     7.533 (MW) /     60.262 (MB)

	Size of irrep 0 of <Ab|Cd> integrals:      4.592 (MW) /     36.740 (MB)
	Size of irrep 1 of <Ab|Cd> integrals:      3.393 (MW) /     27.144 (MB)
	Size of irrep 2 of <Ab|Cd> integrals:      3.393 (MW) /     27.144 (MB)
	Size of irrep 3 of <Ab|Cd> integrals:      3.393 (MW) /     27.144 (MB)
	Size of irrep 4 of <Ab|Cd> integrals:      2.792 (MW) /     22.338 (MB)
	Size of irrep 5 of <Ab|Cd> integrals:      3.881 (MW) /     31.047 (MB)
	Size of irrep 6 of <Ab|Cd> integrals:      3.881 (MW) /     31.047 (MB)
	Size of irrep 7 of <Ab|Cd> integrals:      3.881 (MW) /     31.047 (MB)
	Total:                                    29.206 (MW) /    233.650 (MB)

	Size of irrep 0 of <IA|BC> integrals:      0.169 (MW) /      1.352 (MB)
	Size of irrep 1 of <IA|BC> integrals:      0.102 (MW) /      0.819 (MB)
	Size of irrep 2 of <IA|BC> integrals:      0.102 (MW) /      0.819 (MB)
	Size of irrep 3 of <IA|BC> integrals:      0.102 (MW) /      0.819 (MB)
	Size of irrep 4 of <IA|BC> integrals:      0.067 (MW) /      0.537 (MB)
	Size of irrep 5 of <IA|BC> integrals:      0.125 (MW) /      1.000 (MB)
	Size of irrep 6 of <IA|BC> integrals:      0.125 (MW) /      1.000 (MB)
	Size of irrep 7 of <IA|BC> integrals:      0.125 (MW) /      1.000 (MB)
	Total:                                     0.918 (MW) /      7.347 (MB)

	Size of irrep 0 of <ia|bc> integrals:      0.053 (MW) /      0.423 (MB)
	Size of irrep 1 of <ia|bc> integrals:      0.021 (MW) /      0.166 (MB)
	Size of irrep 2 of <ia|bc> integrals:      0.021 (MW) /      0.166 (MB)
	Size of irrep 3 of <ia|bc> integrals:      0.021 (MW) /      0.166 (MB)
	Size of irrep 4 of <ia|bc> integrals:      0.014 (MW) /      0.109 (MB)
	Size of irrep 5 of <ia|bc> integrals:      0.040 (MW) /      0.323 (MB)
	Size of irrep 6 of <ia|bc> integrals:      0.040 (MW) /      0.323 (MB)
	Size of irrep 7 of <ia|bc> integrals:      0.040 (MW) /      0.323 (MB)
	Total:                                     0.250 (MW) /      1.999 (MB)

	Size of irrep 0 of <Ia|Bc> integrals:      0.180 (MW) /      1.440 (MB)
	Size of irrep 1 of <Ia|Bc> integrals:      0.109 (MW) /      0.869 (MB)
	Size of irrep 2 of <Ia|Bc> integrals:      0.109 (MW) /      0.869 (MB)
	Size of irrep 3 of <Ia|Bc> integrals:      0.109 (MW) /      0.869 (MB)
	Size of irrep 4 of <Ia|Bc> integrals:      0.069 (MW) /      0.548 (MB)
	Size of irrep 5 of <Ia|Bc> integrals:      0.130 (MW) /      1.040 (MB)
	Size of irrep 6 of <Ia|Bc> integrals:      0.130 (MW) /      1.040 (MB)
	Size of irrep 7 of <Ia|Bc> integrals:      0.130 (MW) /      1.040 (MB)
	Total:                                     0.965 (MW) /      7.717 (MB)

	Size of irrep 0 of <iA|bC> integrals:      0.051 (MW) /      0.411 (MB)
	Size of irrep 1 of <iA|bC> integrals:      0.020 (MW) /      0.162 (MB)
	Size of irrep 2 of <iA|bC> integrals:      0.020 (MW) /      0.162 (MB)
	Size of irrep 3 of <iA|bC> integrals:      0.020 (MW) /      0.162 (MB)
	Size of irrep 4 of <iA|bC> integrals:      0.013 (MW) /      0.107 (MB)
	Size of irrep 5 of <iA|bC> integrals:      0.037 (MW) /      0.299 (MB)
	Size of irrep 6 of <iA|bC> integrals:      0.037 (MW) /      0.299 (MB)
	Size of irrep 7 of <iA|bC> integrals:      0.037 (MW) /      0.299 (MB)
	Total:                                     0.238 (MW) /      1.903 (MB)

	Size of irrep 0 of tIjAb amplitudes:       0.002 (MW) /      0.017 (MB)
	Size of irrep 1 of tIjAb amplitudes:       0.000 (MW) /      0.000 (MB)
	Size of irrep 2 of tIjAb amplitudes:       0.000 (MW) /      0.000 (MB)
	Size of irrep 3 of tIjAb amplitudes:       0.000 (MW) /      0.000 (MB)
	Size of irrep 4 of tIjAb amplitudes:       0.000 (MW) /      0.000 (MB)
	Size of irrep 5 of tIjAb amplitudes:       0.002 (MW) /      0.016 (MB)
	Size of irrep 6 of tIjAb amplitudes:       0.002 (MW) /      0.016 (MB)
	Size of irrep 7 of tIjAb amplitudes:       0.002 (MW) /      0.016 (MB)
	Total:                                     0.008 (MW) /      0.064 (MB)

	Nuclear Rep. energy          =      0.00000000000000
	SCF energy                   =    -54.40446908429229
	One-electron energy          =    -15.74062407344270
	Two-electron (AA) energy     =      3.42519812952635
	Two-electron (BB) energy     =      0.00000000000000
	Two-electron (AB) energy     =      2.64432898844644
	Two-electron energy          =      6.06952711797280
	Reference energy             =    -54.40446908429224

*** tstop() called on n412-041.vsc4.prov at Wed Jan 20 22:09:35 2021
Module time:
	user time   =       3.55 seconds =       0.06 minutes
	system time =       2.38 seconds =       0.04 minutes
	total time  =         17 seconds =       0.28 minutes
Total time:
	user time   =      31.98 seconds =       0.53 minutes
	system time =       3.53 seconds =       0.06 minutes
	total time  =         33 seconds =       0.55 minutes
            **************************
            *                        *
            *        CCENERGY        *
            *                        *
            **************************

    Nuclear Rep. energy (wfn)     =    0.000000000000000
    SCF energy          (wfn)     =  -54.404469084292295
    Reference energy    (file100) =  -54.404469084292245

    Input parameters:
    -----------------
    Wave function   =     CCSD_T
    Reference wfn   =     UHF
    Brueckner       =     No
    Memory (Mbytes) =     250000.0
    Maxiter         =     50
    R_Convergence   =     1.0e-07
    E_Convergence   =     1.0e-06
    Restart         =     Yes
    DIIS            =     Yes
    AO Basis        =     NONE
    ABCD            =     NEW
    Cache Level     =     2
    Cache Type      =     LRU
    Print Level     =     1
    Num. of threads =     48
    # Amps to Print =     10
    Print MP2 Amps? =     No
    Analyze T2 Amps =     No
    Print Pair Ener =     No
    Local CC        =     No
    SCS-MP2         =     False
    SCSN-MP2        =     False
    SCS-CCSD        =     False

MP2 correlation energy -0.1074999282227116
                Solving CC Amplitude Equations
                ------------------------------
  Iter             Energy              RMS        T1Diag      D1Diag    New D1Diag    D2Diag
  ----     ---------------------    ---------   ----------  ----------  ----------   --------
     0        -0.107499928222712    0.000e+00    0.000000    0.000000    0.000000    0.000000
     1        -0.117234342567937    2.909e-02    0.005027    0.000000    0.000000    0.000000
     2        -0.120580315101235    1.121e-02    0.008499    0.000000    0.000000    0.000000
     3        -0.120726882536266    3.131e-03    0.009934    0.000000    0.000000    0.000000
     4        -0.120726111517054    8.271e-04    0.010161    0.000000    0.000000    0.000000
     5        -0.120726076627422    3.054e-04    0.010172    0.000000    0.000000    0.000000
     6        -0.120729177313754    7.946e-05    0.010157    0.000000    0.000000    0.000000
     7        -0.120730097075358    1.785e-05    0.010153    0.000000    0.000000    0.000000
     8        -0.120729950342342    4.245e-06    0.010153    0.000000    0.000000    0.000000
     9        -0.120729940447836    7.707e-07    0.010153    0.000000    0.000000    0.000000
    10        -0.120729945291948    2.161e-07    0.010153    0.000000    0.000000    0.000000
    11        -0.120729943571609    3.372e-08    0.010153    0.000000    0.000000    0.000000

    Iterations converged.

      * MP2 total energy                      =  -54.511969012514953
      * CCSD total energy                     =  -54.525199027863856
      * CCSD(T) total energy                     =  -54.528222923669659
*** Psi4 exiting successfully. Buy a developer a beer!
