                               Psi4 1.4a3.dev88

  ==> Input File <==

--------------------------------------------------------------------------
# Any line starting with the # character is a comment line
memory 250000 mb
molecule molecule{
0 4
N          0.0000000000        0.0000000000        0.0000000000
}

set {
  reference uhf
  basis aug-cc-pV(6+d)Z
  scf_type OUT_OF_CORE
  freeze_core true
}

energy('ccsd(t)')
--------------------------------------------------------------------------

    Molecular point group: d2h
    Geometry (in Angstrom), charge = 0, multiplicity = 4:

       Center              X                  Y                   Z               Mass
    ------------   -----------------  -----------------  -----------------  -----------------
         N            0.000000000000     0.000000000000     0.000000000000    14.003074004430

  Charge       = 0
  Multiplicity = 4
  Basis Set: AUG-CC-PV(6+D)Z
    Blend: AUG-CC-PV(6+D)Z

    Orbital Energies [Eh]
    ---------------------

    Alpha Occupied:

       1Ag   -15.670679     2Ag    -1.162966     1B2u   -0.570923
       1B1u   -0.570923     1B3u   -0.570923

    Alpha Virtual:

       2B2u    0.072434     2B3u    0.072434     2B1u    0.072434
       3Ag     0.081061     4Ag     0.264420     1B2g    0.264420
       1B3g    0.264420     5Ag     0.264420     1B1g    0.264420
       3B1u    0.306755     3B3u    0.306755     3B2u    0.306755
       6Ag     0.443529     4B3u    0.615697     4B1u    0.615697
       5B3u    0.615697     5B1u    0.615697     4B2u    0.615697
       1Au     0.615697     5B2u    0.615697     2B2g    0.803458
       7Ag     0.803458     8Ag     0.803458     2B3g    0.803458
       2B1g    0.803458     6B1u    0.937498     6B2u    0.937498
       6B3u    0.937498     9Ag     1.561582     3B2g    1.629430
       4B2g    1.629430     3B3g    1.629430     3B1g    1.629430
       4B3g    1.629430    10Ag     1.629430     4B1g    1.629430
      11Ag     1.629430    12Ag     1.629430     7B3u    1.797874
       7B1u    1.797874     8B3u    1.797874     7B2u    1.797874
       2Au     1.797874     8B2u    1.797874     8B1u    1.797874
      13Ag     1.988217     5B3g    1.988217     5B1g    1.988217
       5B2g    1.988217    14Ag     1.988217     9B1u    2.479996
       9B2u    2.479996     9B3u    2.479996    10B1u    3.445156
      10B3u    3.445156    11B3u    3.445156     3Au     3.445156
      10B2u    3.445156    11B2u    3.445156    12B3u    3.445156
      11B1u    3.445156     4Au     3.445156    12B1u    3.445156
      12B2u    3.445156    13B1u    4.214338    13B3u    4.214338
       5Au     4.214338    14B3u    4.214338    13B2u    4.214338
      14B1u    4.214338    14B2u    4.214338     6B2g    4.339988
       6B3g    4.339988    15Ag     4.339988     6B1g    4.339988
       7B2g    4.339988    16Ag     4.339988    17Ag     4.339988
       7B3g    4.339988     7B1g    4.339988    18Ag     4.740055
       8B3g    4.740055     8B1g    4.740055    19Ag     4.740055
       8B2g    4.740055    20Ag     4.752377    15B2u    6.214056
      15B3u    6.214056    15B1u    6.214056     9B3g    7.202764
       9B1g    7.202764    10B3g    7.202764    21Ag     7.202764
      10B1g    7.202764     9B2g    7.202764    11B1g    7.202764
      22Ag     7.202764    11B3g    7.202764    23Ag     7.202764
      10B2g    7.202764    11B2g    7.202764    24Ag     7.202764
      16B1u    8.358439    16B3u    8.358439    17B1u    8.358439
      16B2u    8.358439    17B3u    8.358439    17B2u    8.358439
      18B3u    8.358439     6Au     8.358439    18B1u    8.358439
       7Au     8.358439    18B2u    8.358439    19B3u    9.335231
      19B1u    9.335231    20B3u    9.335231    20B1u    9.335231
       8Au     9.335231    19B2u    9.335231    20B2u    9.335231
      25Ag    10.178909    12B1g   10.178909    12B2g   10.178909
      26Ag    10.178909    27Ag    10.178909    12B3g   10.178909
      13B2g   10.178909    13B1g   10.178909    13B3g   10.178909
      28Ag    11.388038    29Ag    11.388038    14B2g   11.388038
      14B3g   11.388038    14B1g   11.388038    30Ag    14.880170
      15B3g   17.297818    15B1g   17.297818    15B2g   17.297818
      16B1g   17.297818    16B3g   17.297818    17B1g   17.297818
      17B3g   17.297818    31Ag    17.297818    32Ag    17.297818
      16B2g   17.297818    33Ag    17.297818    17B2g   17.297818
      34Ag    17.297818    21B3u   18.084321    21B2u   18.084321
      21B1u   18.084321    22B1u   20.208396    22B3u   20.208396
      23B3u   20.208396    23B1u   20.208396    24B3u   20.208396
      22B2u   20.208396     9Au    20.208396    10Au    20.208396
      23B2u   20.208396    24B2u   20.208396    24B1u   20.208396
      25B3u   20.884777    25B1u   20.884777    26B3u   20.884777
      11Au    20.884777    26B1u   20.884777    25B2u   20.884777
      26B2u   20.884777    35Ag    23.901306    18B2g   23.901306
      36Ag    23.901306    18B1g   23.901306    19B1g   23.901306
      18B3g   23.901306    37Ag    23.901306    19B3g   23.901306
      19B2g   23.901306    38Ag    28.037751    39Ag    28.037751
      20B3g   28.037751    20B2g   28.037751    20B1g   28.037751
      40Ag    74.779697

    Beta Occupied:

       1Ag   -15.580976     2Ag    -0.725805

    Beta Virtual:

       1B2u    0.056174     1B1u    0.056174     1B3u    0.056174
       3Ag     0.091383     2B2u    0.144073     2B3u    0.144073
       2B1u    0.144073     4Ag     0.271535     5Ag     0.271535
       1B2g    0.271535     1B1g    0.271535     1B3g    0.271535
       3B1u    0.393607     3B2u    0.393607     3B3u    0.393607
       6Ag     0.487217     4B3u    0.620490     4B1u    0.620490
       5B3u    0.620490     4B2u    0.620490     5B1u    0.620490
       5B2u    0.620490     1Au     0.620490     2B3g    0.861434
       7Ag     0.861434     2B2g    0.861434     2B1g    0.861434
       8Ag     0.861434     6B1u    1.046710     6B3u    1.046710
       6B2u    1.046710     3B3g    1.638611     3B2g    1.638611
       4B3g    1.638611     9Ag     1.638611     3B1g    1.638611
       4B2g    1.638611     4B1g    1.638611    10Ag     1.638611
      11Ag     1.638611    12Ag     1.644431     7B3u    1.830388
       7B1u    1.830388     8B3u    1.830388     7B2u    1.830388
       8B1u    1.830388     2Au     1.830388     8B2u    1.830388
      13Ag     2.110194     5B1g    2.110194     5B3g    2.110194
       5B2g    2.110194    14Ag     2.110194     9B1u    2.592950
       9B3u    2.592950     9B2u    2.592950    10B1u    3.457730
      10B3u    3.457730    11B3u    3.457730    11B1u    3.457730
      10B2u    3.457730     3Au     3.457730     4Au     3.457730
      11B2u    3.457730    12B1u    3.457730    12B3u    3.457730
      12B2u    3.457730    13B3u    4.283135    13B1u    4.283135
      14B3u    4.283135     5Au     4.283135    13B2u    4.283135
      14B1u    4.283135    14B2u    4.283135     6B1g    4.375114
       6B2g    4.375114     6B3g    4.375114     7B2g    4.375114
      15Ag     4.375114     7B1g    4.375114     7B3g    4.375114
      16Ag     4.375114    17Ag     4.375114    18Ag     4.848198
      19Ag     4.869946     8B3g    4.869946     8B1g    4.869946
      20Ag     4.869946     8B2g    4.869946    15B3u    6.314476
      15B2u    6.314476    15B1u    6.314476     9B3g    7.220524
      10B3g    7.220524    21Ag     7.220524     9B1g    7.220524
      10B1g    7.220524    22Ag     7.220524     9B2g    7.220524
      10B2g    7.220524    11B3g    7.220524    11B1g    7.220524
      23Ag     7.220524    11B2g    7.220524    24Ag     7.220524
      16B3u    8.391081    16B1u    8.391081    16B2u    8.391081
      17B3u    8.391081    17B1u    8.391081    17B2u    8.391081
       6Au     8.391081    18B3u    8.391081    18B1u    8.391081
       7Au     8.391081    18B2u    8.391081    19B3u    9.416566
      19B1u    9.416566    20B3u    9.416566    20B1u    9.416566
       8Au     9.416566    19B2u    9.416566    20B2u    9.416566
      25Ag    10.236894    12B1g   10.236894    26Ag    10.236894
      12B3g   10.236894    12B2g   10.236894    27Ag    10.236894
      13B1g   10.236894    13B2g   10.236894    13B3g   10.236894
      28Ag    11.486319    29Ag    11.486319    14B2g   11.486319
      14B3g   11.486319    14B1g   11.486319    30Ag    14.949972
      15B3g   17.331067    15B1g   17.331067    15B2g   17.331067
      16B1g   17.331067    16B3g   17.331067    17B1g   17.331067
      31Ag    17.331067    17B3g   17.331067    16B2g   17.331067
      32Ag    17.331067    17B2g   17.331067    33Ag    17.331067
      34Ag    17.331067    21B3u   18.148655    21B2u   18.148655
      21B1u   18.148655    22B1u   20.255720    22B2u   20.255720
      22B3u   20.255720    23B1u   20.255720    23B3u   20.255720
      24B3u   20.255720     9Au    20.255720    10Au    20.255720
      23B2u   20.255720    24B1u   20.255720    24B2u   20.255720
      25B3u   20.952170    26B3u   20.952170    25B1u   20.952170
      26B1u   20.952170    11Au    20.952170    25B2u   20.952170
      26B2u   20.952170    35Ag    23.958062    18B2g   23.958062
      36Ag    23.958062    18B1g   23.958062    19B1g   23.958062
      18B3g   23.958062    37Ag    23.958062    19B3g   23.958062
      19B2g   23.958062    38Ag    28.095028    39Ag    28.095028
      20B3g   28.095028    20B2g   28.095028    20B1g   28.095028
      40Ag    74.803813

    Final Occupation by Irrep:
             Ag   B1g   B2g   B3g    Au   B1u   B2u   B3u
    DOCC [     2,    0,    0,    0,    0,    0,    0,    0 ]
    SOCC [     0,    0,    0,    0,    0,    1,    1,    1 ]

  @UHF Final Energy:   -54.40453771202588

   => Energetics <=

    Nuclear Repulsion Energy =              0.0000000000000000
    One-Electron Energy =                 -73.9558799404666587
    Two-Electron Energy =                  19.5513422284407739
    Total Energy =                        -54.4045377120258848

  UHF NO Occupations:
  HONO-2 :    1B1u 1.0000000
  HONO-1 :    1B2u 1.0000000
  HONO-0 :    1B3u 1.0000000
  LUNO+0 :    3 Ag 0.0039551
  LUNO+1 :    4 Ag 0.0000044
  LUNO+2 :    5 Ag 0.0000000
  LUNO+3 :    6 Ag 0.0000000

Computation Completed

Properties will be evaluated at   0.000000,   0.000000,   0.000000 [a0]

Properties computed using the SCF density matrix

  Nuclear Dipole Moment: [e a0]
     X:     0.0000      Y:     0.0000      Z:     0.0000

  Electronic Dipole Moment: [e a0]
     X:     0.0000      Y:     0.0000      Z:     0.0000

  Dipole Moment: [e a0]
     X:     0.0000      Y:     0.0000      Z:     0.0000     Total:     0.0000

  Dipole Moment: [D]
     X:     0.0000      Y:     0.0000      Z:     0.0000     Total:     0.0000

*** tstop() called on n411-011.vsc4.prov at Thu Jan 21 14:32:38 2021
Module time:
	user time   =     113.64 seconds =       1.89 minutes
	system time =       3.19 seconds =       0.05 minutes
	total time  =        107 seconds =       1.78 minutes
Total time:
	user time   =     113.64 seconds =       1.89 minutes
	system time =       3.19 seconds =       0.05 minutes
	total time  =        107 seconds =       1.78 minutes

*** tstart() called on n411-011.vsc4.prov
*** at Thu Jan 21 14:32:38 2021

	Wfn Parameters:
	--------------------
	Wavefunction         = CCSD_T
	Number of irreps     = 8
	Number of MOs        = 189
	Number of active MOs = 188
	AO-Basis             = NONE
	Semicanonical        = false
	Reference            = UHF
	Print Level          = 1

	IRREP	# MOs	# FZDC	# DOCC	# SOCC	# VIRT	# FZVR
	-----	-----	------	------	------	------	------
	 Ag	   40	    1	    1	    0	    38	    0
	 B1g	   20	    0	    0	    0	    20	    0
	 B2g	   20	    0	    0	    0	    20	    0
	 B3g	   20	    0	    0	    0	    20	    0
	 Au	   11	    0	    0	    0	    11	    0
	 B1u	   26	    0	    0	    1	    25	    0
	 B2u	   26	    0	    0	    1	    25	    0
	 B3u	   26	    0	    0	    1	    25	    0
	Transforming integrals...
	IWL integrals will be deleted.
	(OO|OO)...
	Presorting SO-basis two-electron integrals.
	Sorting File: SO Ints (nn|nn) nbuckets = 1
	Constructing frozen core operators
	Starting AA/AB first half-transformation.
	Sorting AA/AB half-transformed integrals.
	Starting BB first half-transformation.
	Sorting BB half-transformed integrals.
	First half integral transformation complete.
	Starting AA second half-transformation.
	Starting AB second half-transformation.
	Starting BB second half-transformation.
	Two-electron integral transformation complete.
	(OO|OV)...
	Starting AA second half-transformation.
	Starting AB second half-transformation.
	Starting BB second half-transformation.
	Two-electron integral transformation complete.
	(OO|VV)...
	Starting AA second half-transformation.
	Starting AB second half-transformation.
	Starting BB second half-transformation.
	Two-electron integral transformation complete.
	(OV|OO)...
	Starting AA/AB first half-transformation.
	Sorting AA/AB half-transformed integrals.
	Starting BB first half-transformation.
	Sorting BB half-transformed integrals.
	First half integral transformation complete.
	Starting AA second half-transformation.
	Starting AB second half-transformation.
	Starting BB second half-transformation.
	Two-electron integral transformation complete.
	(OV|OV)...
	Starting AA second half-transformation.
	Starting AB second half-transformation.
	Starting BB second half-transformation.
	Two-electron integral transformation complete.
	(OV|VV)...
	Starting AA second half-transformation.
	Starting AB second half-transformation.
	Starting BB second half-transformation.
	Two-electron integral transformation complete.
	(VV|OO)...
	Starting AA/AB first half-transformation.
	Sorting AA/AB half-transformed integrals.
	Starting BB first half-transformation.
	Sorting BB half-transformed integrals.
	First half integral transformation complete.
	Starting AA second half-transformation.
	Starting AB second half-transformation.
	Starting BB second half-transformation.
	Two-electron integral transformation complete.
	(VV|OV)...
	Starting AA second half-transformation.
	Starting AB second half-transformation.
	Starting BB second half-transformation.
	Two-electron integral transformation complete.
	(VV|VV)...
	Starting AA second half-transformation.
	Starting AB second half-transformation.
	Starting BB second half-transformation.
	Two-electron integral transformation complete.
	Frozen core energy     =    -44.73339455219503

	Size of irrep 0 of <AB|CD> integrals:      4.964 (MW) /     39.712 (MB)
	Size of irrep 1 of <AB|CD> integrals:      4.244 (MW) /     33.949 (MB)
	Size of irrep 2 of <AB|CD> integrals:      4.244 (MW) /     33.949 (MB)
	Size of irrep 3 of <AB|CD> integrals:      4.244 (MW) /     33.949 (MB)
	Size of irrep 4 of <AB|CD> integrals:      3.679 (MW) /     29.430 (MB)
	Size of irrep 5 of <AB|CD> integrals:      4.709 (MW) /     37.671 (MB)
	Size of irrep 6 of <AB|CD> integrals:      4.709 (MW) /     37.671 (MB)
	Size of irrep 7 of <AB|CD> integrals:      4.709 (MW) /     37.671 (MB)
	Total:                                    35.500 (MW) /    284.002 (MB)

	Size of irrep 0 of <ab|cd> integrals:      5.304 (MW) /     42.430 (MB)
	Size of irrep 1 of <ab|cd> integrals:      4.503 (MW) /     36.023 (MB)
	Size of irrep 2 of <ab|cd> integrals:      4.503 (MW) /     36.023 (MB)
	Size of irrep 3 of <ab|cd> integrals:      4.503 (MW) /     36.023 (MB)
	Size of irrep 4 of <ab|cd> integrals:      3.912 (MW) /     31.300 (MB)
	Size of irrep 5 of <ab|cd> integrals:      5.054 (MW) /     40.428 (MB)
	Size of irrep 6 of <ab|cd> integrals:      5.054 (MW) /     40.428 (MB)
	Size of irrep 7 of <ab|cd> integrals:      5.054 (MW) /     40.428 (MB)
	Total:                                    37.885 (MW) /    303.084 (MB)

	Size of irrep 0 of <Ab|Cd> integrals:     22.231 (MW) /    177.850 (MB)
	Size of irrep 1 of <Ab|Cd> integrals:     17.481 (MW) /    139.846 (MB)
	Size of irrep 2 of <Ab|Cd> integrals:     17.481 (MW) /    139.846 (MB)
	Size of irrep 3 of <Ab|Cd> integrals:     17.481 (MW) /    139.846 (MB)
	Size of irrep 4 of <Ab|Cd> integrals:     15.179 (MW) /    121.431 (MB)
	Size of irrep 5 of <Ab|Cd> integrals:     19.519 (MW) /    156.150 (MB)
	Size of irrep 6 of <Ab|Cd> integrals:     19.519 (MW) /    156.150 (MB)
	Size of irrep 7 of <Ab|Cd> integrals:     19.519 (MW) /    156.150 (MB)
	Total:                                   148.408 (MW) /   1187.268 (MB)

	Size of irrep 0 of <IA|BC> integrals:      0.524 (MW) /      4.195 (MB)
	Size of irrep 1 of <IA|BC> integrals:      0.334 (MW) /      2.670 (MB)
	Size of irrep 2 of <IA|BC> integrals:      0.334 (MW) /      2.670 (MB)
	Size of irrep 3 of <IA|BC> integrals:      0.334 (MW) /      2.670 (MB)
	Size of irrep 4 of <IA|BC> integrals:      0.272 (MW) /      2.179 (MB)
	Size of irrep 5 of <IA|BC> integrals:      0.447 (MW) /      3.576 (MB)
	Size of irrep 6 of <IA|BC> integrals:      0.447 (MW) /      3.576 (MB)
	Size of irrep 7 of <IA|BC> integrals:      0.447 (MW) /      3.576 (MB)
	Total:                                     3.139 (MW) /     25.111 (MB)

	Size of irrep 0 of <ia|bc> integrals:      0.182 (MW) /      1.457 (MB)
	Size of irrep 1 of <ia|bc> integrals:      0.085 (MW) /      0.679 (MB)
	Size of irrep 2 of <ia|bc> integrals:      0.085 (MW) /      0.679 (MB)
	Size of irrep 3 of <ia|bc> integrals:      0.085 (MW) /      0.679 (MB)
	Size of irrep 4 of <ia|bc> integrals:      0.044 (MW) /      0.348 (MB)
	Size of irrep 5 of <ia|bc> integrals:      0.117 (MW) /      0.935 (MB)
	Size of irrep 6 of <ia|bc> integrals:      0.117 (MW) /      0.935 (MB)
	Size of irrep 7 of <ia|bc> integrals:      0.117 (MW) /      0.935 (MB)
	Total:                                     0.831 (MW) /      6.648 (MB)

	Size of irrep 0 of <Ia|Bc> integrals:      0.547 (MW) /      4.376 (MB)
	Size of irrep 1 of <Ia|Bc> integrals:      0.347 (MW) /      2.776 (MB)
	Size of irrep 2 of <Ia|Bc> integrals:      0.347 (MW) /      2.776 (MB)
	Size of irrep 3 of <Ia|Bc> integrals:      0.347 (MW) /      2.776 (MB)
	Size of irrep 4 of <Ia|Bc> integrals:      0.277 (MW) /      2.213 (MB)
	Size of irrep 5 of <Ia|Bc> integrals:      0.459 (MW) /      3.676 (MB)
	Size of irrep 6 of <Ia|Bc> integrals:      0.459 (MW) /      3.676 (MB)
	Size of irrep 7 of <Ia|Bc> integrals:      0.459 (MW) /      3.676 (MB)
	Total:                                     3.243 (MW) /     25.944 (MB)

	Size of irrep 0 of <iA|bC> integrals:      0.179 (MW) /      1.433 (MB)
	Size of irrep 1 of <iA|bC> integrals:      0.084 (MW) /      0.669 (MB)
	Size of irrep 2 of <iA|bC> integrals:      0.084 (MW) /      0.669 (MB)
	Size of irrep 3 of <iA|bC> integrals:      0.084 (MW) /      0.669 (MB)
	Size of irrep 4 of <iA|bC> integrals:      0.043 (MW) /      0.343 (MB)
	Size of irrep 5 of <iA|bC> integrals:      0.110 (MW) /      0.884 (MB)
	Size of irrep 6 of <iA|bC> integrals:      0.110 (MW) /      0.884 (MB)
	Size of irrep 7 of <iA|bC> integrals:      0.110 (MW) /      0.884 (MB)
	Total:                                     0.804 (MW) /      6.434 (MB)

	Size of irrep 0 of tIjAb amplitudes:       0.005 (MW) /      0.038 (MB)
	Size of irrep 1 of tIjAb amplitudes:       0.000 (MW) /      0.000 (MB)
	Size of irrep 2 of tIjAb amplitudes:       0.000 (MW) /      0.000 (MB)
	Size of irrep 3 of tIjAb amplitudes:       0.000 (MW) /      0.000 (MB)
	Size of irrep 4 of tIjAb amplitudes:       0.000 (MW) /      0.000 (MB)
	Size of irrep 5 of tIjAb amplitudes:       0.004 (MW) /      0.035 (MB)
	Size of irrep 6 of tIjAb amplitudes:       0.004 (MW) /      0.035 (MB)
	Size of irrep 7 of tIjAb amplitudes:       0.004 (MW) /      0.035 (MB)
	Total:                                     0.018 (MW) /      0.144 (MB)

	Nuclear Rep. energy          =      0.00000000000000
	SCF energy                   =    -54.40453771202588
	One-electron energy          =    -15.74074618669593
	Two-electron (AA) energy     =      3.42524634142660
	Two-electron (BB) energy     =      0.00000000000000
	Two-electron (AB) energy     =      2.64435668543826
	Two-electron energy          =      6.06960302686486
	Reference energy             =    -54.40453771202610

*** tstop() called on n411-011.vsc4.prov at Thu Jan 21 14:33:39 2021
Module time:
	user time   =      16.99 seconds =       0.28 minutes
	system time =      11.51 seconds =       0.19 minutes
	total time  =         61 seconds =       1.02 minutes
Total time:
	user time   =     130.63 seconds =       2.18 minutes
	system time =      14.70 seconds =       0.24 minutes
	total time  =        168 seconds =       2.80 minutes
            **************************
            *                        *
            *        CCENERGY        *
            *                        *
            **************************

    Nuclear Rep. energy (wfn)     =    0.000000000000000
    SCF energy          (wfn)     =  -54.404537712025885
    Reference energy    (file100) =  -54.404537712026098

    Input parameters:
    -----------------
    Wave function   =     CCSD_T

      * MP2 total energy                      =  -54.513273158074036
      * CCSD total energy                     =  -54.526010199342991
      * CCSD(T) total energy                     =  -54.529075316464933
*** Psi4 exiting successfully. Buy a developer a beer!
