                               Psi4 1.4a3.dev88

  ==> Input File <==

--------------------------------------------------------------------------
# Any line starting with the # character is a comment line
memory 250000 mb
molecule molecule{
0 4
N          0.0000000000        0.0000000000        0.0000000000
}

set {
  reference uhf
  basis aug-cc-pV(t+d)Z
  scf_type OUT_OF_CORE
  freeze_core true
}

energy('ccsd(t)')
--------------------------------------------------------------------------

    Molecular point group: d2h
    Geometry (in Angstrom), charge = 0, multiplicity = 4:

       Center              X                  Y                   Z               Mass
    ------------   -----------------  -----------------  -----------------  -----------------
         N            0.000000000000     0.000000000000     0.000000000000    14.003074004430

  Charge       = 0
  Multiplicity = 4
  Basis Set: AUG-CC-PV(T+D)Z
    Blend: AUG-CC-PV(T+D)Z

    Orbital Energies [Eh]
    ---------------------

    Alpha Occupied:

       1Ag   -15.672389     2Ag    -1.163601     1B1u   -0.570741
       1B2u   -0.570741     1B3u   -0.570741

    Alpha Virtual:

       3Ag     0.120646     2B2u    0.129723     2B1u    0.129723
       2B3u    0.129723     4Ag     0.449982     1B2g    0.449982
       5Ag     0.449982     1B1g    0.449982     1B3g    0.449982
       3B1u    0.726909     3B2u    0.726909     3B3u    0.726909
       6Ag     0.960620     4B3u    1.479358     4B1u    1.479358
       4B2u    1.479358     5B3u    1.479358     1Au     1.479358
       5B1u    1.479358     5B2u    1.479358     2B2g    1.491509
       2B3g    1.491509     7Ag     1.491509     2B1g    1.491509
       8Ag     1.491509     6B2u    3.275362     6B1u    3.275362
       6B3u    3.275362     2Au     4.828129     7B2u    4.828129
       7B3u    4.828129     8B2u    4.828129     7B1u    4.828129
       8B3u    4.828129     8B1u    4.828129     9Ag     4.975054
      10Ag     4.975054     3B1g    4.975054     3B2g    4.975054
       3B3g    4.975054    11Ag     6.284387

    Beta Occupied:

       1Ag   -15.582710     2Ag    -0.726945

    Beta Virtual:

       1B1u    0.077007     1B2u    0.077007     1B3u    0.077007
       3Ag     0.140629     2B2u    0.225780     2B1u    0.225780
       2B3u    0.225780     1B2g    0.478500     4Ag     0.478500
       1B3g    0.478500     1B1g    0.478500     5Ag     0.478500
       3B1u    0.880707     3B2u    0.880707     3B3u    0.880707
       6Ag     1.064263     4B1u    1.513236     4B3u    1.513236
       1Au     1.513236     4B2u    1.513236     5B3u    1.513236
       5B1u    1.513236     5B2u    1.513236     2B2g    1.627346
       7Ag     1.627346     2B3g    1.627346     8Ag     1.627346
       2B1g    1.627346     6B2u    3.432809     6B3u    3.432809
       6B1u    3.432809     2Au     4.927476     7B3u    4.927476
       7B2u    4.927476     8B2u    4.927476     7B1u    4.927476
       8B3u    4.927476     8B1u    4.927476     9Ag     5.146726
      10Ag     5.146726     3B1g    5.146726     3B2g    5.146726
       3B3g    5.146726    11Ag     6.389716

    Final Occupation by Irrep:
             Ag   B1g   B2g   B3g    Au   B1u   B2u   B3u
    DOCC [     2,    0,    0,    0,    0,    0,    0,    0 ]
    SOCC [     0,    0,    0,    0,    0,    1,    1,    1 ]

  @UHF Final Energy:   -54.40116224025204

   => Energetics <=

    Nuclear Repulsion Energy =              0.0000000000000000
    One-Electron Energy =                 -73.9444557973535126
    Two-Electron Energy =                  19.5432935571014710
    Total Energy =                        -54.4011622402520416

  UHF NO Occupations:
  HONO-2 :    1B1u 1.0000000
  HONO-1 :    1B2u 1.0000000
  HONO-0 :    1B3u 1.0000000
  LUNO+0 :    3 Ag 0.0038107
  LUNO+1 :    4 Ag 0.0000041
  LUNO+2 :    5 Ag 0.0000000
  LUNO+3 :    6 Ag 0.0000000

Computation Completed

Properties will be evaluated at   0.000000,   0.000000,   0.000000 [a0]

Properties computed using the SCF density matrix

  Nuclear Dipole Moment: [e a0]
     X:     0.0000      Y:     0.0000      Z:     0.0000

  Electronic Dipole Moment: [e a0]
     X:     0.0000      Y:     0.0000      Z:     0.0000

  Dipole Moment: [e a0]
     X:     0.0000      Y:     0.0000      Z:     0.0000     Total:     0.0000

  Dipole Moment: [D]
     X:     0.0000      Y:     0.0000      Z:     0.0000     Total:     0.0000

*** tstop() called on n412-040.vsc4.prov at Tue Jan 26 18:05:17 2021
Module time:
	user time   =       7.95 seconds =       0.13 minutes
	system time =       0.22 seconds =       0.00 minutes
	total time  =          1 seconds =       0.02 minutes
Total time:
	user time   =       7.95 seconds =       0.13 minutes
	system time =       0.22 seconds =       0.00 minutes
	total time  =          1 seconds =       0.02 minutes

*** tstart() called on n412-040.vsc4.prov
*** at Tue Jan 26 18:05:17 2021

	Wfn Parameters:
	--------------------
	Wavefunction         = CCSD_T
	Number of irreps     = 8
	Number of MOs        = 46
	Number of active MOs = 45
	AO-Basis             = NONE
	Semicanonical        = false
	Reference            = UHF
	Print Level          = 1

	IRREP	# MOs	# FZDC	# DOCC	# SOCC	# VIRT	# FZVR
	-----	-----	------	------	------	------	------
	 Ag	   11	    1	    1	    0	    9	    0
	 B1g	   3	    0	    0	    0	    3	    0
	 B2g	   3	    0	    0	    0	    3	    0
	 B3g	   3	    0	    0	    0	    3	    0
	 Au	   2	    0	    0	    0	    2	    0
	 B1u	   8	    0	    0	    1	    7	    0
	 B2u	   8	    0	    0	    1	    7	    0
	 B3u	   8	    0	    0	    1	    7	    0
	Transforming integrals...
	IWL integrals will be deleted.
	(OO|OO)...
	Presorting SO-basis two-electron integrals.
	Sorting File: SO Ints (nn|nn) nbuckets = 1
	Constructing frozen core operators
	Starting AA/AB first half-transformation.
	Sorting AA/AB half-transformed integrals.
	Starting BB first half-transformation.
	Sorting BB half-transformed integrals.
	First half integral transformation complete.
	Starting AA second half-transformation.
	Starting AB second half-transformation.
	Starting BB second half-transformation.
	Two-electron integral transformation complete.
	(OO|OV)...
	Starting AA second half-transformation.
	Starting AB second half-transformation.
	Starting BB second half-transformation.
	Two-electron integral transformation complete.
	(OO|VV)...
	Starting AA second half-transformation.
	Starting AB second half-transformation.
	Starting BB second half-transformation.
	Two-electron integral transformation complete.
	(OV|OO)...
	Starting AA/AB first half-transformation.
	Sorting AA/AB half-transformed integrals.
	Starting BB first half-transformation.
	Sorting BB half-transformed integrals.
	First half integral transformation complete.
	Starting AA second half-transformation.
	Starting AB second half-transformation.
	Starting BB second half-transformation.
	Two-electron integral transformation complete.
	(OV|OV)...
	Starting AA second half-transformation.
	Starting AB second half-transformation.
	Starting BB second half-transformation.
	Two-electron integral transformation complete.
	(OV|VV)...
	Starting AA second half-transformation.
	Starting AB second half-transformation.
	Starting BB second half-transformation.
	Two-electron integral transformation complete.
	(VV|OO)...
	Starting AA/AB first half-transformation.
	Sorting AA/AB half-transformed integrals.
	Starting BB first half-transformation.
	Sorting BB half-transformed integrals.
	First half integral transformation complete.
	Starting AA second half-transformation.
	Starting AB second half-transformation.
	Starting BB second half-transformation.
	Two-electron integral transformation complete.
	(VV|OV)...
	Starting AA second half-transformation.
	Starting AB second half-transformation.
	Starting BB second half-transformation.
	Two-electron integral transformation complete.
	(VV|VV)...
	Starting AA second half-transformation.
	Starting AB second half-transformation.
	Starting BB second half-transformation.
	Two-electron integral transformation complete.
	Frozen core energy     =    -44.73233224840818

	Size of irrep 0 of <AB|CD> integrals:      0.012 (MW) /      0.095 (MB)
	Size of irrep 1 of <AB|CD> integrals:      0.010 (MW) /      0.078 (MB)
	Size of irrep 2 of <AB|CD> integrals:      0.010 (MW) /      0.078 (MB)
	Size of irrep 3 of <AB|CD> integrals:      0.010 (MW) /      0.078 (MB)
	Size of irrep 4 of <AB|CD> integrals:      0.007 (MW) /      0.052 (MB)
	Size of irrep 5 of <AB|CD> integrals:      0.012 (MW) /      0.099 (MB)
	Size of irrep 6 of <AB|CD> integrals:      0.012 (MW) /      0.099 (MB)
	Size of irrep 7 of <AB|CD> integrals:      0.012 (MW) /      0.099 (MB)
	Total:                                     0.085 (MW) /      0.678 (MB)

	Size of irrep 0 of <ab|cd> integrals:      0.017 (MW) /      0.135 (MB)
	Size of irrep 1 of <ab|cd> integrals:      0.013 (MW) /      0.108 (MB)
	Size of irrep 2 of <ab|cd> integrals:      0.013 (MW) /      0.108 (MB)
	Size of irrep 3 of <ab|cd> integrals:      0.013 (MW) /      0.108 (MB)
	Size of irrep 4 of <ab|cd> integrals:      0.008 (MW) /      0.065 (MB)
	Size of irrep 5 of <ab|cd> integrals:      0.016 (MW) /      0.127 (MB)
	Size of irrep 6 of <ab|cd> integrals:      0.016 (MW) /      0.127 (MB)
	Size of irrep 7 of <ab|cd> integrals:      0.016 (MW) /      0.127 (MB)
	Total:                                     0.113 (MW) /      0.904 (MB)

	Size of irrep 0 of <Ab|Cd> integrals:      0.078 (MW) /      0.627 (MB)
	Size of irrep 1 of <Ab|Cd> integrals:      0.046 (MW) /      0.366 (MB)
	Size of irrep 2 of <Ab|Cd> integrals:      0.046 (MW) /      0.366 (MB)
	Size of irrep 3 of <Ab|Cd> integrals:      0.046 (MW) /      0.366 (MB)
	Size of irrep 4 of <Ab|Cd> integrals:      0.029 (MW) /      0.234 (MB)
	Size of irrep 5 of <Ab|Cd> integrals:      0.056 (MW) /      0.449 (MB)
	Size of irrep 6 of <Ab|Cd> integrals:      0.056 (MW) /      0.449 (MB)
	Size of irrep 7 of <Ab|Cd> integrals:      0.056 (MW) /      0.449 (MB)
	Total:                                     0.414 (MW) /      3.308 (MB)

	Size of irrep 0 of <IA|BC> integrals:      0.008 (MW) /      0.062 (MB)
	Size of irrep 1 of <IA|BC> integrals:      0.004 (MW) /      0.030 (MB)
	Size of irrep 2 of <IA|BC> integrals:      0.004 (MW) /      0.030 (MB)
	Size of irrep 3 of <IA|BC> integrals:      0.004 (MW) /      0.030 (MB)
	Size of irrep 4 of <IA|BC> integrals:      0.002 (MW) /      0.014 (MB)
	Size of irrep 5 of <IA|BC> integrals:      0.005 (MW) /      0.039 (MB)
	Size of irrep 6 of <IA|BC> integrals:      0.005 (MW) /      0.039 (MB)
	Size of irrep 7 of <IA|BC> integrals:      0.005 (MW) /      0.039 (MB)
	Total:                                     0.035 (MW) /      0.284 (MB)

	Size of irrep 0 of <ia|bc> integrals:      0.003 (MW) /      0.022 (MB)
	Size of irrep 1 of <ia|bc> integrals:      0.001 (MW) /      0.006 (MB)
	Size of irrep 2 of <ia|bc> integrals:      0.001 (MW) /      0.006 (MB)
	Size of irrep 3 of <ia|bc> integrals:      0.001 (MW) /      0.006 (MB)
	Size of irrep 4 of <ia|bc> integrals:      0.000 (MW) /      0.003 (MB)
	Size of irrep 5 of <ia|bc> integrals:      0.002 (MW) /      0.016 (MB)
	Size of irrep 6 of <ia|bc> integrals:      0.002 (MW) /      0.016 (MB)
	Size of irrep 7 of <ia|bc> integrals:      0.002 (MW) /      0.016 (MB)
	Total:                                     0.011 (MW) /      0.090 (MB)

	Size of irrep 0 of <Ia|Bc> integrals:      0.009 (MW) /      0.074 (MB)
	Size of irrep 1 of <Ia|Bc> integrals:      0.004 (MW) /      0.036 (MB)
	Size of irrep 2 of <Ia|Bc> integrals:      0.004 (MW) /      0.036 (MB)
	Size of irrep 3 of <Ia|Bc> integrals:      0.004 (MW) /      0.036 (MB)
	Size of irrep 4 of <Ia|Bc> integrals:      0.002 (MW) /      0.015 (MB)
	Size of irrep 5 of <Ia|Bc> integrals:      0.005 (MW) /      0.044 (MB)
	Size of irrep 6 of <Ia|Bc> integrals:      0.005 (MW) /      0.044 (MB)
	Size of irrep 7 of <Ia|Bc> integrals:      0.005 (MW) /      0.044 (MB)
	Total:                                     0.041 (MW) /      0.328 (MB)

	Size of irrep 0 of <iA|bC> integrals:      0.003 (MW) /      0.020 (MB)
	Size of irrep 1 of <iA|bC> integrals:      0.001 (MW) /      0.005 (MB)
	Size of irrep 2 of <iA|bC> integrals:      0.001 (MW) /      0.005 (MB)
	Size of irrep 3 of <iA|bC> integrals:      0.001 (MW) /      0.005 (MB)
	Size of irrep 4 of <iA|bC> integrals:      0.000 (MW) /      0.003 (MB)
	Size of irrep 5 of <iA|bC> integrals:      0.002 (MW) /      0.013 (MB)
	Size of irrep 6 of <iA|bC> integrals:      0.002 (MW) /      0.013 (MB)
	Size of irrep 7 of <iA|bC> integrals:      0.002 (MW) /      0.013 (MB)
	Total:                                     0.010 (MW) /      0.078 (MB)

	Size of irrep 0 of tIjAb amplitudes:       0.000 (MW) /      0.002 (MB)
	Size of irrep 1 of tIjAb amplitudes:       0.000 (MW) /      0.000 (MB)
	Size of irrep 2 of tIjAb amplitudes:       0.000 (MW) /      0.000 (MB)
	Size of irrep 3 of tIjAb amplitudes:       0.000 (MW) /      0.000 (MB)
	Size of irrep 4 of tIjAb amplitudes:       0.000 (MW) /      0.000 (MB)
	Size of irrep 5 of tIjAb amplitudes:       0.000 (MW) /      0.002 (MB)
	Size of irrep 6 of tIjAb amplitudes:       0.000 (MW) /      0.002 (MB)
	Size of irrep 7 of tIjAb amplitudes:       0.000 (MW) /      0.002 (MB)
	Total:                                     0.001 (MW) /      0.008 (MB)

	Nuclear Rep. energy          =      0.00000000000000
	SCF energy                   =    -54.40116224025204
	One-electron energy          =    -15.73489004554334
	Two-electron (AA) energy     =      3.42205107682451
	Two-electron (BB) energy     =      0.00000000000000
	Two-electron (AB) energy     =      2.64400897687496
	Two-electron energy          =      6.06606005369947
	Reference energy             =    -54.40116224025206

*** tstop() called on n412-040.vsc4.prov at Tue Jan 26 18:05:18 2021
Module time:
	user time   =       0.11 seconds =       0.00 minutes
	system time =       0.18 seconds =       0.00 minutes
	total time  =          1 seconds =       0.02 minutes
Total time:
	user time   =       8.06 seconds =       0.13 minutes
	system time =       0.40 seconds =       0.01 minutes
	total time  =          2 seconds =       0.03 minutes
            **************************
            *                        *
            *        CCENERGY        *
            *                        *
            **************************

    Nuclear Rep. energy (wfn)     =    0.000000000000000
    SCF energy          (wfn)     =  -54.401162240252042
    Reference energy    (file100) =  -54.401162240252056

    Input parameters:
    -----------------
    Wave function   =     CCSD_T
    Reference wfn   =     UHF
    Brueckner       =     No
    Memory (Mbytes) =     250000.0
    Maxiter         =     50
    R_Convergence   =     1.0e-07
    E_Convergence   =     1.0e-06
    Restart         =     Yes
    DIIS            =     Yes
    AO Basis        =     NONE
    ABCD            =     NEW
    Cache Level     =     2
    Cache Type      =     LRU
    Print Level     =     1
    Num. of threads =     48
    # Amps to Print =     10
    Print MP2 Amps? =     No
    Analyze T2 Amps =     No
    Print Pair Ener =     No
    Local CC        =     No
    SCS-MP2         =     False
    SCSN-MP2        =     False
    SCS-CCSD        =     False

MP2 correlation energy -0.0974850360512742
                Solving CC Amplitude Equations
                ------------------------------
  Iter             Energy              RMS        T1Diag      D1Diag    New D1Diag    D2Diag
  ----     ---------------------    ---------   ----------  ----------  ----------   --------
     0        -0.097485036051274    0.000e+00    0.000000    0.000000    0.000000    0.000000
     1        -0.109593009117607    3.046e-02    0.004658    0.000000    0.000000    0.000000
     2        -0.113003565161541    1.135e-02    0.008169    0.000000    0.000000    0.000000
     3        -0.113215815209887    3.264e-03    0.009734    0.000000    0.000000    0.000000
     4        -0.113197945206970    8.183e-04    0.009913    0.000000    0.000000    0.000000
     5        -0.113201898943303    2.970e-04    0.009934    0.000000    0.000000    0.000000
     6        -0.113205298899140    8.500e-05    0.009916    0.000000    0.000000    0.000000
     7        -0.113205565446352    1.439e-05    0.009912    0.000000    0.000000    0.000000
     8        -0.113205490433382    2.910e-06    0.009912    0.000000    0.000000    0.000000
     9        -0.113205527665836    6.813e-07    0.009912    0.000000    0.000000    0.000000
    10        -0.113205527564052    9.769e-08    0.009912    0.000000    0.000000    0.000000

    Iterations converged.

    Largest TIA Amplitudes:
              1  20        -0.0079440756
              2  27        -0.0079440756
              3  34        -0.0079440756
              0   0         0.0070603032
              1  21        -0.0041480548
              2  28        -0.0041480548
              3  35        -0.0041480548
              0   3        -0.0028417237
              1  24         0.0019820647
              2  31         0.0019820647

    Largest Tia Amplitudes:
              0   3        -0.0101246322
              0   0         0.0084776411
              0   8         0.0023193830

    Largest TIJAB Amplitudes:
      3   2  35  28        -0.0248425948
      3   1  35  21        -0.0248425948
      2   1  28  21        -0.0248425948
      3   2  10   5         0.0174820052
      2   1  16   4        -0.0153018087
      3   1  13   4        -0.0149779126
      1   0  21   3        -0.0146835754
      2   0  28   3        -0.0146835754
      3   0  35   3        -0.0146835754
      3   2  34  28        -0.0129821154

    Largest TIjAb Amplitudes:
      1   0   4  21         0.0286123838
      3   0   5  37         0.0250441078
      1   0  13  37         0.0247833038
      1   0  16  29         0.0247833038
      2   0  10  37         0.0247833038
      2   0  16  21         0.0247833038
      3   0  10  29         0.0247833038
      3   0  13  21         0.0247833038
      2   0   5  29        -0.0245139947
      1   0  21   3         0.0241846537

    SCF energy       (wfn)                    =  -54.401162240252042
    Reference energy (file100)                =  -54.401162240252056

    Opposite-spin MP2 correlation energy      =   -0.067707141096683
    Same-spin MP2 correlation energy          =   -0.029777894954592
    Singles MP2 correlation energy            =   -0.000000000000000
    MP2 correlation energy                    =   -0.097485036051274
      * MP2 total energy                      =  -54.498647276303331

    Opposite-spin CCSD correlation energy     =   -0.080803245494853
    Same-spin CCSD correlation energy         =   -0.032402282069199
    Singles CCSD correlation energy           =   -0.000000000000000

      * CCSD total energy                     =  -54.514367767816104
      * CCSD(T) total energy                     =  -54.516923864068673
*** Psi4 exiting successfully. Buy a developer a beer!
