                               Psi4 1.2a1.dev938

  ==> Input File <==

--------------------------------------------------------------------------
# Any line starting with the # character is a comment line
memory 250000 mb
molecule molecule{
-1 2
C          0.0000000000        0.0000000000        0.0997578423
H          0.0000000000        0.8741780617       -0.5943763735
H          0.0000000000       -0.8741780617       -0.5943763735
}

set {
  reference uhf
  basis aug-cc-pv(q+d)z
  scf_type OUT_OF_CORE
  freeze_core true
}

energy('ccsd')
--------------------------------------------------------------------------

    Molecular point group: c2v

    Geometry (in Angstrom), charge = -1, multiplicity = 2:

       Center              X                  Y                   Z               Mass
    ------------   -----------------  -----------------  -----------------  -----------------
           C         -0.000000000000     0.000000000000     0.099826384805    12.000000000000
           H         -0.000000000000     0.874178061700    -0.594307830995     1.007825032070
           H          0.000000000000    -0.874178061700    -0.594307830995     1.007825032070

  Charge       = -1
  Multiplicity = 2
  Basis Set: AUG-CC-PV(Q+D)Z
    Blend: AUG-CC-PV(Q+D)Z

    Orbital Energies (a.u.)
    -----------------------

    Alpha Occupied:

       1A1   -10.956262     2A1    -0.613778     1B2    -0.258010
       3A1    -0.098349     1B1    -0.071779

    Alpha Virtual:

       4A1     0.144848     2B2     0.149977     5A1     0.217861
       2B1     0.225001     3B2     0.255678     6A1     0.281990
       4B2     0.346301     7A1     0.385719     1A2     0.398325
       8A1     0.401786     3B1     0.405634     9A1     0.441291
       5B2     0.442159     4B1     0.452776     6B2     0.464356
       2A2     0.472098    10A1     0.480440    11A1     0.530494
       7B2     0.586046     8B2     0.680969     5B1     0.708905
      12A1     0.716293    13A1     0.784742     3A2     0.820663
       6B1     0.834100    14A1     0.834296     9B2     0.902211
       7B1     0.910705    10B2     0.944897    15A1     0.959772
      11B2     0.975953    16A1     0.978607    12B2     0.993557
       4A2     0.995799    17A1     1.011144     8B1     1.062777
      18A1     1.083931     5A2     1.104897    19A1     1.120461
      13B2     1.133526     9B1     1.136882     6A2     1.178343
      10B1     1.241494    20A1     1.249890    14B2     1.262082
      15B2     1.375846    21A1     1.378523    11B1     1.497425
      16B2     1.636777     7A2     1.658575    22A1     1.700911
      17B2     1.723610    23A1     1.730165    24A1     1.918689
      12B1     1.935856    25A1     1.971916    13B1     1.974945
      18B2     2.040700     8A2     2.043996    26A1     2.080967
      19B2     2.096290     9A2     2.120890    27A1     2.173648
      20B2     2.190094    10A2     2.246927    14B1     2.251288
      21B2     2.255401    28A1     2.256995    22B2     2.298043
      15B1     2.325869    29A1     2.418110    11A2     2.478663
      16B1     2.512450    30A1     2.517377    17B1     2.535160
      31A1     2.596181    23B2     2.626613    18B1     2.645233
      12A2     2.696119    24B2     2.703994    32A1     2.713449
      25B2     2.761572    33A1     2.822888    34A1     2.841857
      13A2     2.847652    19B1     2.859731    20B1     2.884333
      26B2     2.990319    14A2     3.063238    27B2     3.065647
      35A1     3.090821    36A1     3.324199    28B2     3.394945
      37A1     3.600452    38A1     3.623631    15A2     3.693379
      21B1     3.727699    29B2     3.794403    16A2     3.913041
      22B1     4.006709    30B2     4.089411    39A1     4.153357
      40A1     4.254319    31B2     4.358123    32B2     4.411677
      17A2     4.463803    23B1     4.478324    41A1     4.565427
      42A1     4.698531    33B2     4.822159    43A1     6.217121
      24B1     6.224028    18A2     6.236388    34B2     6.257595
      25B1     6.277397    44A1     6.321237    45A1     6.416587
      35B2     6.454567    19A2     6.463763    26B1     6.526167
      20A2     6.607882    27B1     6.660668    46A1     6.759404
      28B1     6.800614    36B2     6.841994    47A1     6.885128
      37B2     6.953819    21A2     7.054905    48A1     7.055029
      38B2     7.113187    29B1     7.192244    49A1     7.224688
      39B2     7.293724    50A1     7.510293    30B1     7.564713
      40B2     7.719769    22A2     7.734626    41B2     7.824309
      51A1     7.832449    23A2     7.962516    31B1     8.150845
      52A1     8.297205    53A1     8.451417    32B1     8.544193
      24A2     8.591199    42B2     8.675859    54A1     8.841023
      43B2     8.896305    33B1     9.215147    55A1     9.224255
      56A1     9.327622    25A2     9.353787    44B2     9.367644
      45B2     9.575492    26A2     9.632445    57A1     9.683404
      34B1     9.788308    46B2    10.187917    35B1    10.281480
      27A2    10.401006    58A1    10.403538    47B2    10.691892
      59A1    10.836967    48B2    10.995809    60A1    12.520352
      49B2    13.019178    61A1    25.497492

    Beta Occupied:

       1A1   -10.936560     2A1    -0.532372     1B2    -0.244349
       3A1    -0.046879

    Beta Virtual:

       4A1     0.145326     2B2     0.150078     1B1     0.212965
       5A1     0.221185     3B2     0.255810     6A1     0.285709
       4B2     0.346593     2B1     0.364943     7A1     0.387778
       1A2     0.406362     8A1     0.411067     3B1     0.425910
       5B2     0.441763     9A1     0.447705     6B2     0.462284
       2A2     0.474968    10A1     0.479789     4B1     0.493630
      11A1     0.539313     7B2     0.592808     8B2     0.684161
      12A1     0.730829    13A1     0.787290     5B1     0.789398
       3A2     0.835211     6B1     0.849339    14A1     0.856704
       9B2     0.901812     7B1     0.917889    10B2     0.947745
      15A1     0.965912    11B2     0.983182    16A1     0.989783
      12B2     0.997905     4A2     1.002766    17A1     1.027218
       8B1     1.080398    18A1     1.091707     5A2     1.117222
      19A1     1.128486    13B2     1.139610     9B1     1.148656
       6A2     1.199299    20A1     1.257638    10B1     1.262524
      14B2     1.262528    15B2     1.381845    21A1     1.398436
      11B1     1.537595    16B2     1.636493     7A2     1.664916
      22A1     1.705473    17B2     1.728148    23A1     1.746831
      24A1     1.920314    12B1     1.941472    25A1     1.975899
      13B1     1.996262    18B2     2.042843     8A2     2.045905
      26A1     2.089142    19B2     2.099274     9A2     2.135249
      27A1     2.179260    20B2     2.191738    10A2     2.251157
      14B1     2.254340    28A1     2.260328    21B2     2.270797
      22B2     2.298243    15B1     2.364956    29A1     2.435929
      11A2     2.511294    30A1     2.533201    16B1     2.540939
      17B1     2.560233    31A1     2.627060    23B2     2.634915
      18B1     2.665504    12A2     2.709241    24B2     2.713746
      32A1     2.735097    25B2     2.770315    33A1     2.833827
      34A1     2.851129    13A2     2.856074    19B1     2.871122
      20B1     2.905785    26B2     2.993667    27B2     3.070143
      14A2     3.075803    35A1     3.100345    36A1     3.337019
      28B2     3.398690    37A1     3.612785    38A1     3.623745
      15A2     3.697497    21B1     3.735333    29B2     3.803669
      16A2     3.921136    22B1     4.017413    30B2     4.090646
      39A1     4.157780    40A1     4.259029    31B2     4.364522
      32B2     4.415368    17A2     4.484740    23B1     4.495261
      41A1     4.571920    42A1     4.713590    33B2     4.825503
      43A1     6.234031    18A2     6.248984    24B1     6.256030
      34B2     6.272664    25B1     6.294504    44A1     6.337689
      45A1     6.433797    35B2     6.459571    19A2     6.483600
      26B1     6.547814    20A2     6.625608    27B1     6.699760
      46A1     6.777414    28B1     6.815752    36B2     6.867644
      47A1     6.912880    37B2     6.958618    21A2     7.057455
      48A1     7.069995    38B2     7.121268    29B1     7.201193
      49A1     7.229683    39B2     7.295955    50A1     7.516338
      30B1     7.591479    40B2     7.724307    22A2     7.761325
      41B2     7.830084    51A1     7.841843    23A2     7.966659
      31B1     8.157827    52A1     8.302563    53A1     8.451549
      32B1     8.547194    24A2     8.593753    42B2     8.677964
      54A1     8.842458    43B2     8.896219    33B1     9.215587
      55A1     9.224614    56A1     9.331351    25A2     9.354599
      44B2     9.367720    45B2     9.577736    26A2     9.634323
      57A1     9.684230    34B1     9.790792    46B2    10.187279
      35B1    10.290390    58A1    10.404725    27A2    10.409227
      47B2    10.694332    59A1    10.838271    48B2    10.998821
      60A1    12.523137    49B2    13.020744    61A1    25.510052

    Final Occupation by Irrep:
             A1    A2    B1    B2
    DOCC [     3,    0,    0,    1 ]
    SOCC [     0,    0,    1,    0 ]

  Energy converged.

  @UHF Final Energy:   -38.90334469505246

   => Energetics <=

    Nuclear Repulsion Energy =              5.9914846340844354
    One-Electron Energy =                 -66.0313194050750667
    Two-Electron Energy =                  21.1364900759381698
    PCM Polarization Energy =               0.0000000000000000
    Total Energy =                        -38.9033446950524606

    Alert: EFP and PCM quantities not currently incorporated into SCF psivars.
  UHF NO Occupations:
  HONO-2 :    2 A1 1.9983118
  HONO-1 :    3 A1 1.9914559
  HONO-0 :    1 B1 1.0000000
  LUNO+0 :    4 A1 0.0085441
  LUNO+1 :    5 A1 0.0016882
  LUNO+2 :    2 B2 0.0007216
  LUNO+3 :    6 A1 0.0000010

Properties will be evaluated at   0.000000,   0.000000,   0.000000 Bohr

Properties computed using the SCF density matrix

  Nuclear Dipole Moment: (a.u.)
     X:     0.0000      Y:     0.0000      Z:    -1.1143

  Electronic Dipole Moment: (a.u.)
     X:     0.0000      Y:     0.0000      Z:     0.3527

  Dipole Moment: (a.u.)
     X:     0.0000      Y:     0.0000      Z:    -0.7616     Total:     0.7616

  Dipole Moment: (Debye)
     X:     0.0000      Y:     0.0000      Z:    -1.9359     Total:     1.9359

*** tstop() called on cqc05 at Thu Aug 20 20:20:48 2020
Module time:
	user time   =      19.49 seconds =       0.32 minutes
	system time =       1.41 seconds =       0.02 minutes
	total time  =         21 seconds =       0.35 minutes
Total time:
	user time   =      19.49 seconds =       0.32 minutes
	system time =       1.41 seconds =       0.02 minutes
	total time  =         21 seconds =       0.35 minutes

*** tstart() called on cqc05
*** at Thu Aug 20 20:20:48 2020

	Wfn Parameters:
	--------------------
	Wavefunction         = CCSD
	Number of irreps     = 4
	Number of MOs        = 172
	Number of active MOs = 171
	AO-Basis             = NONE
	Semicanonical        = false
	Reference            = UHF
	Print Level          = 1

	IRREP	# MOs	# FZDC	# DOCC	# SOCC	# VIRT	# FZVR
	-----	-----	------	------	------	------	------
	 A1	   61	    1	    2	    0	    58	    0
	 A2	   27	    0	    0	    0	    27	    0
	 B1	   35	    0	    0	    1	    34	    0
	 B2	   49	    0	    1	    0	    48	    0
	Transforming integrals...
	IWL integrals will be deleted.
	(OO|OO)...
	Presorting SO-basis two-electron integrals.
	Sorting File: SO Ints (nn|nn) nbuckets = 1
	Transforming the one-electron integrals and constructing Fock matrices
	Starting AA/AB first half-transformation.
	Sorting AA/AB half-transformed integrals.
	Starting BB first half-transformation.
	Sorting BB half-transformed integrals.
	First half integral transformation complete.
	Starting AA second half-transformation.
	Starting AB second half-transformation.
	Starting BB second half-transformation.
	Two-electron integral transformation complete.
	(OO|OV)...
	Starting AA second half-transformation.
	Starting AB second half-transformation.
	Starting BB second half-transformation.
	Two-electron integral transformation complete.
	(OO|VV)...
	Starting AA second half-transformation.
	Starting AB second half-transformation.
	Starting BB second half-transformation.
	Two-electron integral transformation complete.
	(OV|OO)...
	Starting AA/AB first half-transformation.
	Sorting AA/AB half-transformed integrals.
	Starting BB first half-transformation.
	Sorting BB half-transformed integrals.
	First half integral transformation complete.
	Starting AA second half-transformation.
	Starting AB second half-transformation.
	Starting BB second half-transformation.
	Two-electron integral transformation complete.
	(OV|OV)...
	Starting AA second half-transformation.
	Starting AB second half-transformation.
	Starting BB second half-transformation.
	Two-electron integral transformation complete.
	(OV|VV)...
	Starting AA second half-transformation.
	Starting AB second half-transformation.
	Starting BB second half-transformation.
	Two-electron integral transformation complete.
	(VV|OO)...
	Starting AA/AB first half-transformation.
	Sorting AA/AB half-transformed integrals.
	Starting BB first half-transformation.
	Sorting BB half-transformed integrals.
	First half integral transformation complete.
	Starting AA second half-transformation.
	Starting AB second half-transformation.
	Starting BB second half-transformation.
	Two-electron integral transformation complete.
	(VV|OV)...
	Starting AA second half-transformation.
	Starting AB second half-transformation.
	Starting BB second half-transformation.
	Two-electron integral transformation complete.
	(VV|VV)...
	Starting AA second half-transformation.
	Starting AB second half-transformation.
	Starting BB second half-transformation.
	Two-electron integral transformation complete.
	Frozen core energy     =    -34.25618639469867

	Size of irrep 0 of <AB|CD> integrals:     13.638 (MW) /    109.106 (MB)
	Size of irrep 1 of <AB|CD> integrals:     10.227 (MW) /     81.818 (MB)
	Size of irrep 2 of <AB|CD> integrals:     10.680 (MW) /     85.439 (MB)
	Size of irrep 3 of <AB|CD> integrals:     13.705 (MW) /    109.638 (MB)
	Total:                                    48.250 (MW) /    386.001 (MB)

	Size of irrep 0 of <ab|cd> integrals:     13.891 (MW) /    111.124 (MB)
	Size of irrep 1 of <ab|cd> integrals:     10.537 (MW) /     84.292 (MB)
	Size of irrep 2 of <ab|cd> integrals:     11.062 (MW) /     88.498 (MB)
	Size of irrep 3 of <ab|cd> integrals:     13.905 (MW) /    111.244 (MB)
	Total:                                    49.395 (MW) /    395.158 (MB)

	Size of irrep 0 of <Ab|Cd> integrals:     57.563 (MW) /    460.501 (MB)
	Size of irrep 1 of <Ab|Cd> integrals:     41.525 (MW) /    332.201 (MB)
	Size of irrep 2 of <Ab|Cd> integrals:     43.481 (MW) /    347.847 (MB)
	Size of irrep 3 of <Ab|Cd> integrals:     55.220 (MW) /    441.758 (MB)
	Total:                                   197.788 (MW) /   1582.306 (MB)

	Size of irrep 0 of <IA|BC> integrals:      1.495 (MW) /     11.964 (MB)
	Size of irrep 1 of <IA|BC> integrals:      0.870 (MW) /      6.959 (MB)
	Size of irrep 2 of <IA|BC> integrals:      1.000 (MW) /      8.000 (MB)
	Size of irrep 3 of <IA|BC> integrals:      1.340 (MW) /     10.721 (MB)
	Total:                                     4.705 (MW) /     37.644 (MB)

	Size of irrep 0 of <ia|bc> integrals:      1.250 (MW) /     10.000 (MB)
	Size of irrep 1 of <ia|bc> integrals:      0.578 (MW) /      4.622 (MB)
	Size of irrep 2 of <ia|bc> integrals:      0.645 (MW) /      5.162 (MB)
	Size of irrep 3 of <ia|bc> integrals:      1.149 (MW) /      9.188 (MB)
	Total:                                     3.622 (MW) /     28.973 (MB)

	Size of irrep 0 of <Ia|Bc> integrals:      1.510 (MW) /     12.079 (MB)
	Size of irrep 1 of <Ia|Bc> integrals:      0.883 (MW) /      7.063 (MB)
	Size of irrep 2 of <Ia|Bc> integrals:      1.022 (MW) /      8.177 (MB)
	Size of irrep 3 of <Ia|Bc> integrals:      1.345 (MW) /     10.760 (MB)
	Total:                                     4.760 (MW) /     38.078 (MB)

	Size of irrep 0 of <iA|bC> integrals:      1.244 (MW) /      9.954 (MB)
	Size of irrep 1 of <iA|bC> integrals:      0.567 (MW) /      4.537 (MB)
	Size of irrep 2 of <iA|bC> integrals:      0.626 (MW) /      5.011 (MB)
	Size of irrep 3 of <iA|bC> integrals:      1.144 (MW) /      9.155 (MB)
	Total:                                     3.582 (MW) /     28.657 (MB)

	Size of irrep 0 of tIjAb amplitudes:       0.038 (MW) /      0.303 (MB)
	Size of irrep 1 of tIjAb amplitudes:       0.006 (MW) /      0.052 (MB)
	Size of irrep 2 of tIjAb amplitudes:       0.013 (MW) /      0.106 (MB)
	Size of irrep 3 of tIjAb amplitudes:       0.030 (MW) /      0.238 (MB)
	Total:                                     0.087 (MW) /      0.698 (MB)

	Nuclear Rep. energy          =      5.99148463408444
	SCF energy                   =    -38.90334469505246
	One-electron energy          =    -19.41176893979697
	Two-electron (AA) energy     =      2.29499338449009
	Two-electron (BB) energy     =      1.06703863211686
	Two-electron (AB) energy     =      5.41109398875154
	Two-electron energy          =      8.77312600535849
	Reference energy             =    -38.90334469505272

*** tstop() called on cqc05 at Thu Aug 20 20:21:17 2020
Module time:
	user time   =      17.55 seconds =       0.29 minutes
	system time =      11.06 seconds =       0.18 minutes
	total time  =         29 seconds =       0.48 minutes
Total time:
	user time   =      37.04 seconds =       0.62 minutes
	system time =      12.47 seconds =       0.21 minutes
	total time  =         50 seconds =       0.83 minutes

*** tstart() called on cqc05
*** at Thu Aug 20 20:21:17 2020

            **************************
            *                        *
            *        CCENERGY        *
            *                        *
            **************************

    Nuclear Rep. energy (wfn)     =    5.991484634084435
    SCF energy          (wfn)     =  -38.903344695052461
    Reference energy    (file100) =  -38.903344695052716

    Input parameters:
    -----------------
    Wave function   =     CCSD
    Reference wfn   =     UHF
    Brueckner       =     No
    Memory (Mbytes) =     250000.0
    Maxiter         =     50
    R_Convergence   =     1.0e-07
    E_Convergence   =     1.0e-06
    Restart         =     Yes
    DIIS            =     Yes
    AO Basis        =     NONE
    ABCD            =     NEW
    Cache Level     =     2
    Cache Type      =     LRU
    Print Level     =     1
    Num. of threads =     4
    # Amps to Print =     10
    Print MP2 Amps? =     No
    Analyze T2 Amps =     No
    Print Pair Ener =     No
    Local CC        =     No
    SCS-MP2         =     False
    SCSN-MP2        =     False
    SCS-CCSD        =     False

MP2 correlation energy -0.1830649264648272
                Solving CC Amplitude Equations
                ------------------------------
  Iter             Energy              RMS        T1Diag      D1Diag    New D1Diag    D2Diag
  ----     ---------------------    ---------   ----------  ----------  ----------   --------
     0        -0.183064926464828    0.000e+00    0.000000    0.000000    0.000000    0.000000
     1        -0.190866769492221    5.532e-02    0.015020    0.000000    0.000000    0.000000
     2        -0.195951310759511    2.124e-02    0.018330    0.000000    0.000000    0.000000
     3        -0.197538988629441    1.328e-02    0.023333    0.000000    0.000000    0.000000
     4        -0.197532107220847    6.244e-03    0.026283    0.000000    0.000000    0.000000
     5        -0.197501001222705    3.486e-03    0.028144    0.000000    0.000000    0.000000
     6        -0.197518295489405    1.550e-03    0.028738    0.000000    0.000000    0.000000
     7        -0.197521865123483    8.370e-04    0.028887    0.000000    0.000000    0.000000
     8        -0.197526728212814    3.934e-04    0.028915    0.000000    0.000000    0.000000
     9        -0.197532974161651    2.016e-04    0.028921    0.000000    0.000000    0.000000
    10        -0.197529889499647    1.254e-04    0.028921    0.000000    0.000000    0.000000
    11        -0.197529846612351    6.474e-05    0.028913    0.000000    0.000000    0.000000
    12        -0.197529662362596    3.094e-05    0.028918    0.000000    0.000000    0.000000
    13        -0.197529837557203    1.648e-05    0.028917    0.000000    0.000000    0.000000

      * MP2 total energy                      =  -39.086409621517546
      * CCSD total energy                     =  -39.100874742060121
*** Psi4 exiting successfully. Buy a developer a beer!
