                               Psi4 1.2a1.dev938

  ==> Input File <==

--------------------------------------------------------------------------
# Any line starting with the # character is a comment line
memory 250000 mb
molecule molecule{
-1 2
C          0.0000000000        0.0000000000        0.0997578423
H          0.0000000000        0.8741780617       -0.5943763735
H          0.0000000000       -0.8741780617       -0.5943763735
}

set {
  reference uhf
  basis aug-cc-pv(5+d)z
  scf_type OUT_OF_CORE
  freeze_core true
}

energy('ccsd')
--------------------------------------------------------------------------

    Molecular point group: c2v

    Geometry (in Angstrom), charge = -1, multiplicity = 2:

       Center              X                  Y                   Z               Mass
    ------------   -----------------  -----------------  -----------------  -----------------
           C         -0.000000000000     0.000000000000     0.099826384805    12.000000000000
           H         -0.000000000000     0.874178061700    -0.594307830995     1.007825032070
           H          0.000000000000    -0.874178061700    -0.594307830995     1.007825032070

  Charge       = -1
  Multiplicity = 2
  Basis Set: AUG-CC-PV(5+D)Z
    Blend: AUG-CC-PV(5+D)Z

    Orbital Energies (a.u.)
    -----------------------

    Alpha Occupied:

       1A1   -10.956447     2A1    -0.614146     1B2    -0.258381
       3A1    -0.099022     1B1    -0.072249

    Alpha Virtual:

       4A1     0.134539     2B2     0.138904     5A1     0.193930
       2B1     0.198950     3B2     0.217711     6A1     0.256318
       4B2     0.325065     7A1     0.334164     8A1     0.347434
       1A2     0.348236     3B1     0.355314     5B2     0.387381
       9A1     0.399379     6B2     0.401956     4B1     0.416508
       2A2     0.432803    10A1     0.437327     7B2     0.458861
      11A1     0.477646    12A1     0.536591     5B1     0.542425
       8B2     0.594411    13A1     0.647583    14A1     0.691839
       3A2     0.693142     9B2     0.694152     6B1     0.702345
       7B1     0.756832    10B2     0.775980    15A1     0.794732
      11B2     0.811494     4A2     0.822172    16A1     0.829896
       8B1     0.853332     9B1     0.862298    17A1     0.864921
       5A2     0.872186    12B2     0.874614    18A1     0.882539
      19A1     0.897971    13B2     0.908230    14B2     0.960702
      15B2     0.985638     6A2     0.986104    10B1     1.032798
      20A1     1.038603    21A1     1.068348    11B1     1.232009
      22A1     1.251992     7A2     1.328901    23A1     1.338100
      16B2     1.341597    12B1     1.358182    17B2     1.368964
      24A1     1.477623    25A1     1.496342    13B1     1.529470
       8A2     1.566439    18B2     1.569726    26A1     1.580245
      19B2     1.601215     9A2     1.622701    14B1     1.643282
      20B2     1.644636    27A1     1.648458    21B2     1.648831
      15B1     1.651505    10A2     1.674274    28A1     1.700286
      22B2     1.768397    29A1     1.786900    23B2     1.822678
      16B1     1.911547    11A2     1.932423    30A1     1.964656
      17B1     1.969587    31A1     1.990033    18B1     2.007518
      12A2     2.042459    24B2     2.047635    32A1     2.106037
      33A1     2.121440    25B2     2.150119    34A1     2.163749
      19B1     2.166395    13A2     2.228250    26B2     2.276793
      27B2     2.290368    14A2     2.349096    35A1     2.349831
      20B1     2.361273    36A1     2.418051    28B2     2.534746
      37A1     2.636627    21B1     2.754466    38A1     2.761035
      29B2     2.882837    15A2     2.894967    39A1     2.917870
      30B2     3.007915    22B1     3.008524    16A2     3.030332
      23B1     3.031887    40A1     3.144715    31B2     3.174714
      41A1     3.211471    24B1     3.314125    32B2     3.318102
      42A1     3.328659    17A2     3.407211    33B2     3.467817
      25B1     3.476191    18A2     3.504837    43A1     3.525478
      44A1     3.586043    34B2     3.590526    35B2     3.639405
      26B1     3.644502    19A2     3.648364    45A1     3.695179
      27B1     3.757354    36B2     3.758831    20A2     3.765585
      46A1     3.805897    37B2     3.821655    21A2     3.901577
      38B2     3.922313    47A1     3.923073    28B1     3.987267
      29B1     4.035865    48A1     4.054656    39B2     4.112013
      40B2     4.226712    49A1     4.273100    41B2     4.306236
      30B1     4.313141    22A2     4.329208    50A1     4.344873
      31B1     4.374814    51A1     4.417323    52A1     4.483524
      23A2     4.491937    42B2     4.522023    32B1     4.528940
      53A1     4.607315    24A2     4.653702    33B1     4.690866
      43B2     4.718224    34B1     4.722889    25A2     4.732367
      54A1     4.785244    55A1     4.838674    44B2     4.965307
      45B2     4.999968    35B1     5.010397    26A2     5.080851
      56A1     5.098704    57A1     5.187187    27A2     5.375642
      58A1     5.472503    36B1     5.480769    46B2     5.502040
      47B2     5.652316    28A2     5.653804    48B2     5.705507
      59A1     5.784049    60A1     5.935605    37B1     6.047456
      49B2     6.085164    38B1     6.199496    61A1     6.237928
      39B1     6.288718    29A2     6.350465    50B2     6.373766
      51B2     6.529058    62A1     6.562306    63A1     6.599964
      30A2     6.677598    52B2     6.818642    40B1     6.874031
      53B2     6.895116    64A1     6.959168    65A1     7.034088
      31A2     7.064739    32A2     7.237446    41B1     7.298406
      66A1     7.710520    54B2     7.830229    55B2     7.919893
      67A1     8.089301    42B1     8.134386    33A2     8.164512
      56B2     8.241926    57B2     8.401713    68A1     8.419492
      69A1     9.385567    43B1     9.406952    70A1     9.482961
      44B1     9.501287    58B2     9.567719    45B1     9.647978
      34A2     9.753658    46B1     9.869680    71A1    10.056572
      59B2    10.107113    35A2    10.200412    60B2    10.464652
      72A1    10.549591    73A1    10.666722    47B1    10.761275
      36A2    10.768106    74A1    10.790212    61B2    10.808080
      37A2    10.836362    48B1    10.892844    75A1    10.937804
      62B2    11.028494    49B1    11.276539    63B2    11.339169
      76A1    11.360816    77A1    11.630516    78A1    11.919127
      50B1    11.973582    38A2    12.005148    64B2    12.101833
      65B2    12.469514    79A1    13.004885    51B1    13.057693
      39A2    13.354414    80A1    13.485907    52B1    13.497898
      40A2    13.506751    41A2    13.533082    66B2    13.550822
      81A1    13.568284    82A1    13.628620    67B2    13.727600
      42A2    13.757143    53B1    13.776003    68B2    13.800564
      69B2    13.926297    83A1    14.010382    54B1    14.055854
      84A1    14.186356    55B1    14.377173    70B2    14.440838
      85A1    14.660116    43A2    14.696663    56B1    14.702666
      44A2    14.714847    71B2    14.765819    45A2    14.879112
      57B1    14.905463    86A1    15.008643    72B2    15.071623
      87A1    15.136487    46A2    15.212257    58B1    15.336037
      73B2    15.337538    88A1    15.406387    74B2    15.470570
      59B1    15.481347    75B2    15.794541    89A1    15.800103
      47A2    15.908351    90A1    16.143753    76B2    16.155931
      91A1    16.393611    77B2    16.873447    60B1    18.076544
      48A2    18.137539    49A2    18.246363    61B1    18.261347
      92A1    18.278068    78B2    18.290756    93A1    18.471324
      79B2    18.876816    94A1    19.383389    80B2    19.430385
      95A1    21.127197    81B2    21.153062    96A1    40.643311

    Beta Occupied:

       1A1   -10.936669     2A1    -0.532484     1B2    -0.244639
       3A1    -0.046506

    Beta Virtual:

       4A1     0.134785     2B2     0.138964     1B1     0.191558
       5A1     0.196293     3B2     0.217532     6A1     0.259605
       4B2     0.325536     7A1     0.334747     2B1     0.335269
       8A1     0.351271     1A2     0.352798     3B1     0.385208
       5B2     0.386948     6B2     0.399913     9A1     0.406084
       2A2     0.435868    10A1     0.437366     4B1     0.439720
       7B2     0.462071    11A1     0.485323    12A1     0.545576
       8B2     0.598142     5B1     0.620235    13A1     0.652239
       9B2     0.696354    14A1     0.704956     3A2     0.704990
       6B1     0.720008     7B1     0.763103    10B2     0.775489
      15A1     0.795802    11B2     0.813925     4A2     0.824170
      16A1     0.838869     8B1     0.860092     9B1     0.866139
      17A1     0.869629     5A2     0.874557    12B2     0.877430
      18A1     0.899029    19A1     0.902397    13B2     0.914960
      14B2     0.960954    15B2     0.989008     6A2     1.012563
      20A1     1.052508    10B1     1.058731    21A1     1.088681
      22A1     1.255471    11B1     1.300107     7A2     1.336655
      16B2     1.343721    23A1     1.343970    12B1     1.367783
      17B2     1.370090    24A1     1.477405    25A1     1.505554
      13B1     1.532708     8A2     1.567623    18B2     1.572650
      26A1     1.591514    19B2     1.603156     9A2     1.627136
      20B2     1.650079    27A1     1.652325    14B1     1.653263
      15B1     1.653917    21B2     1.660233    10A2     1.676447
      28A1     1.708510    22B2     1.768556    29A1     1.794616
      23B2     1.824775    16B1     1.925423    11A2     1.969916
      30A1     1.974847    17B1     1.999645    31A1     2.005918
      18B1     2.023941    12A2     2.050093    24B2     2.055003
      32A1     2.126166    33A1     2.131361    25B2     2.152091
      34A1     2.175839    19B1     2.179397    13A2     2.234369
      26B2     2.281374    27B2     2.296868    35A1     2.354136
      14A2     2.360367    20B1     2.375373    36A1     2.432384
      28B2     2.538206    37A1     2.649687    38A1     2.762168
      21B1     2.788817    29B2     2.888960    15A2     2.899274
      39A1     2.925155    30B2     3.013393    22B1     3.019404
      16A2     3.036883    23B1     3.049737    40A1     3.151489
      31B2     3.176392    41A1     3.215868    24B1     3.317304
      32B2     3.322388    42A1     3.338189    17A2     3.414341
      33B2     3.470693    25B1     3.482382    18A2     3.510198
      43A1     3.527878    44A1     3.589792    34B2     3.591885
      35B2     3.641466    26B1     3.646719    19A2     3.659279
      45A1     3.698626    36B2     3.761389    27B1     3.766080
      20A2     3.775246    46A1     3.812447    37B2     3.825844
      21A2     3.902702    38B2     3.924681    47A1     3.932004
      28B1     4.012961    29B1     4.050573    48A1     4.066951
      39B2     4.119606    40B2     4.241086    49A1     4.286751
      41B2     4.310552    30B1     4.325557    22A2     4.341494
      50A1     4.353886    31B1     4.393131    51A1     4.429252
      52A1     4.494836    23A2     4.500659    42B2     4.531356
      32B1     4.540816    53A1     4.617508    24A2     4.663589
      33B1     4.701793    43B2     4.721600    34B1     4.740207
      25A2     4.749309    54A1     4.790698    55A1     4.853018
      44B2     4.968810    45B2     5.011179    35B1     5.023740
      26A2     5.088498    56A1     5.103875    57A1     5.206704
      27A2     5.380901    58A1     5.479562    36B1     5.497339
      46B2     5.505902    47B2     5.656796    28A2     5.664262
      48B2     5.710769    59A1     5.790375    60A1     5.949801
      37B1     6.052264    49B2     6.088964    38B1     6.202274
      61A1     6.238738    39B1     6.302888    29A2     6.351108
      50B2     6.377087    51B2     6.531980    62A1     6.569279
      63A1     6.605960    30A2     6.693172    52B2     6.825246
      40B1     6.883466    53B2     6.897369    64A1     6.965454
      65A1     7.038179    31A2     7.070988    32A2     7.243929
      41B1     7.304524    66A1     7.712776    54B2     7.831893
      55B2     7.921956    67A1     8.092620    42B1     8.143734
      33A2     8.173045    56B2     8.245997    57B2     8.407148
      68A1     8.422077    69A1     9.401090    43B1     9.420973
      70A1     9.497664    44B1     9.529732    58B2     9.578942
      45B1     9.666696    34A2     9.766459    46B1     9.881792
      71A1    10.067067    59B2    10.117984    35A2    10.208246
      60B2    10.472111    72A1    10.558286    73A1    10.684861
      47B1    10.780115    36A2    10.786829    74A1    10.807648
      61B2    10.823763    37A2    10.848199    48B1    10.907211
      75A1    10.955217    62B2    11.042904    49B1    11.293979
      63B2    11.345135    76A1    11.371873    77A1    11.639262
      78A1    11.926605    50B1    11.992401    38A2    12.021400
      64B2    12.108430    65B2    12.475406    79A1    13.018521
      51B1    13.076679    39A2    13.370830    80A1    13.486581
      52B1    13.498374    40A2    13.506819    41A2    13.533684
      66B2    13.551240    81A1    13.574565    82A1    13.629972
      67B2    13.729259    42A2    13.758288    53B1    13.777387
      68B2    13.802525    69B2    13.927860    83A1    14.011522
      54B1    14.056704    84A1    14.188635    55B1    14.378576
      70B2    14.441717    85A1    14.659335    43A2    14.696115
      56B1    14.702167    44A2    14.716051    71B2    14.765070
      45A2    14.880465    57B1    14.906513    86A1    15.008934
      72B2    15.071898    87A1    15.136961    46A2    15.214236
      58B1    15.338255    73B2    15.338513    88A1    15.406966
      74B2    15.470719    59B1    15.482944    75B2    15.795832
      89A1    15.799977    47A2    15.910737    90A1    16.145581
      76B2    16.156154    91A1    16.393315    77B2    16.873799
      60B1    18.080436    48A2    18.140127    49A2    18.247652
      61B1    18.261334    92A1    18.279353    78B2    18.290808
      93A1    18.470134    79B2    18.876667    94A1    19.385078
      80B2    19.432045    95A1    21.127369    81B2    21.153321
      96A1    40.651482

    Final Occupation by Irrep:
             A1    A2    B1    B2
    DOCC [     3,    0,    0,    1 ]
    SOCC [     0,    0,    1,    0 ]

  Energy converged.

  @UHF Final Energy:   -38.90387588916386

   => Energetics <=

    Nuclear Repulsion Energy =              5.9914846340844354
    One-Electron Energy =                 -66.0301784478694458
    Two-Electron Energy =                  21.1348179246211529
    Total Energy =                        -38.9038758891638565

  UHF NO Occupations:
  HONO-2 :    2 A1 1.9982491
  HONO-1 :    3 A1 1.9909414
  HONO-0 :    1 B1 1.0000000
  LUNO+0 :    4 A1 0.0090586
  LUNO+1 :    5 A1 0.0017509
  LUNO+2 :    2 B2 0.0007286
  LUNO+3 :    6 A1 0.0000010

Properties will be evaluated at   0.000000,   0.000000,   0.000000 Bohr

Properties computed using the SCF density matrix

  Nuclear Dipole Moment: (a.u.)
     X:     0.0000      Y:     0.0000      Z:    -1.1143

  Electronic Dipole Moment: (a.u.)
     X:     0.0000      Y:     0.0000      Z:     0.3493

  Dipole Moment: (a.u.)
     X:     0.0000      Y:     0.0000      Z:    -0.7650     Total:     0.7650

  Dipole Moment: (Debye)
     X:     0.0000      Y:     0.0000      Z:    -1.9444     Total:     1.9444

*** tstop() called on cqc05 at Thu Aug 20 23:51:32 2020
Module time:
	user time   =     155.57 seconds =       2.59 minutes
	system time =      12.41 seconds =       0.21 minutes
	total time  =        167 seconds =       2.78 minutes
Total time:
	user time   =     155.57 seconds =       2.59 minutes
	system time =      12.41 seconds =       0.21 minutes
	total time  =        167 seconds =       2.78 minutes

*** tstart() called on cqc05
*** at Thu Aug 20 23:51:32 2020

	Wfn Parameters:
	--------------------
	Wavefunction         = CCSD
	Number of irreps     = 4
	Number of MOs        = 287
	Number of active MOs = 286
	AO-Basis             = NONE
	Semicanonical        = false
	Reference            = UHF
	Print Level          = 1

	IRREP	# MOs	# FZDC	# DOCC	# SOCC	# VIRT	# FZVR
	-----	-----	------	------	------	------	------
	 A1	   96	    1	    2	    0	    93	    0
	 A2	   49	    0	    0	    0	    49	    0
	 B1	   61	    0	    0	    1	    60	    0
	 B2	   81	    0	    1	    0	    80	    0
	Transforming integrals...
	IWL integrals will be deleted.
	(OO|OO)...
	Presorting SO-basis two-electron integrals.
	Sorting File: SO Ints (nn|nn) nbuckets = 1
	Transforming the one-electron integrals and constructing Fock matrices
	Starting AA/AB first half-transformation.
	Sorting AA/AB half-transformed integrals.
	Starting BB first half-transformation.
	Sorting BB half-transformed integrals.
	First half integral transformation complete.
	Starting AA second half-transformation.
	Starting AB second half-transformation.
	Starting BB second half-transformation.
	Two-electron integral transformation complete.
	(OO|OV)...
	Starting AA second half-transformation.
	Starting AB second half-transformation.
	Starting BB second half-transformation.
	Two-electron integral transformation complete.
	(OO|VV)...
	Starting AA second half-transformation.
	Starting AB second half-transformation.
	Starting BB second half-transformation.
	Two-electron integral transformation complete.
	(OV|OO)...
	Starting AA/AB first half-transformation.
	Sorting AA/AB half-transformed integrals.
	Starting BB first half-transformation.
	Sorting BB half-transformed integrals.
	First half integral transformation complete.
	Starting AA second half-transformation.
	Starting AB second half-transformation.
	Starting BB second half-transformation.
	Two-electron integral transformation complete.
	(OV|OV)...
	Starting AA second half-transformation.
	Starting AB second half-transformation.
	Starting BB second half-transformation.
	Two-electron integral transformation complete.
	(OV|VV)...
	Starting AA second half-transformation.
	Starting AB second half-transformation.
	Starting BB second half-transformation.
	Two-electron integral transformation complete.
	(VV|OO)...
	Starting AA/AB first half-transformation.
	Sorting AA/AB half-transformed integrals.
	Starting BB first half-transformation.
	Sorting BB half-transformed integrals.
	First half integral transformation complete.
	Starting AA second half-transformation.
	Starting AB second half-transformation.
	Starting BB second half-transformation.
	Two-electron integral transformation complete.
	(VV|OV)...
	Starting AA second half-transformation.
	Starting AB second half-transformation.
	Starting BB second half-transformation.
	Two-electron integral transformation complete.
	(VV|VV)...
	Starting AA second half-transformation.
	Starting AB second half-transformation.
	Starting BB second half-transformation.
	Two-electron integral transformation complete.
	Frozen core energy     =    -34.25626073320053

	Size of irrep 0 of <AB|CD> integrals:    107.827 (MW) /    862.620 (MB)
	Size of irrep 1 of <AB|CD> integrals:     87.553 (MW) /    700.428 (MB)
	Size of irrep 2 of <AB|CD> integrals:     90.250 (MW) /    722.000 (MB)
	Size of irrep 3 of <AB|CD> integrals:    107.744 (MW) /    861.955 (MB)
	Total:                                   393.375 (MW) /   3147.002 (MB)

	Size of irrep 0 of <ab|cd> integrals:    109.077 (MW) /    872.617 (MB)
	Size of irrep 1 of <ab|cd> integrals:     89.057 (MW) /    712.456 (MB)
	Size of irrep 2 of <ab|cd> integrals:     92.026 (MW) /    736.205 (MB)
	Size of irrep 3 of <ab|cd> integrals:    108.764 (MW) /    870.112 (MB)
	Total:                                   398.924 (MW) /   3191.390 (MB)

	Size of irrep 0 of <Ab|Cd> integrals:    445.632 (MW) /   3565.057 (MB)
	Size of irrep 1 of <Ab|Cd> integrals:    353.214 (MW) /   2825.715 (MB)
	Size of irrep 2 of <Ab|Cd> integrals:    364.543 (MW) /   2916.341 (MB)
	Size of irrep 3 of <Ab|Cd> integrals:    433.014 (MW) /   3464.116 (MB)
	Total:                                  1596.404 (MW) /  12771.229 (MB)

	Size of irrep 0 of <IA|BC> integrals:      6.862 (MW) /     54.898 (MB)
	Size of irrep 1 of <IA|BC> integrals:      4.454 (MW) /     35.631 (MB)
	Size of irrep 2 of <IA|BC> integrals:      4.978 (MW) /     39.824 (MB)
	Size of irrep 3 of <IA|BC> integrals:      6.270 (MW) /     50.156 (MB)
	Total:                                    22.564 (MW) /    180.510 (MB)

	Size of irrep 0 of <ia|bc> integrals:      5.631 (MW) /     45.052 (MB)
	Size of irrep 1 of <ia|bc> integrals:      3.001 (MW) /     24.008 (MB)
	Size of irrep 2 of <ia|bc> integrals:      3.281 (MW) /     26.246 (MB)
	Size of irrep 3 of <ia|bc> integrals:      5.277 (MW) /     42.217 (MB)
	Total:                                    17.190 (MW) /    137.523 (MB)

	Size of irrep 0 of <Ia|Bc> integrals:      6.903 (MW) /     55.224 (MB)
	Size of irrep 1 of <Ia|Bc> integrals:      4.492 (MW) /     35.934 (MB)
	Size of irrep 2 of <Ia|Bc> integrals:      5.041 (MW) /     40.324 (MB)
	Size of irrep 3 of <Ia|Bc> integrals:      6.284 (MW) /     50.275 (MB)
	Total:                                    22.720 (MW) /    181.757 (MB)

	Size of irrep 0 of <iA|bC> integrals:      5.615 (MW) /     44.922 (MB)
	Size of irrep 1 of <iA|bC> integrals:      2.969 (MW) /     23.756 (MB)
	Size of irrep 2 of <iA|bC> integrals:      3.227 (MW) /     25.814 (MB)
	Size of irrep 3 of <iA|bC> integrals:      5.265 (MW) /     42.117 (MB)
	Total:                                    17.076 (MW) /    136.609 (MB)

	Size of irrep 0 of tIjAb amplitudes:       0.106 (MW) /      0.844 (MB)
	Size of irrep 1 of tIjAb amplitudes:       0.019 (MW) /      0.150 (MB)
	Size of irrep 2 of tIjAb amplitudes:       0.038 (MW) /      0.305 (MB)
	Size of irrep 3 of tIjAb amplitudes:       0.083 (MW) /      0.666 (MB)
	Total:                                     0.246 (MW) /      1.966 (MB)

	Nuclear Rep. energy          =      5.99148463408444

      * MP2 total energy                      =  -39.090313730366624
      * CCSD total energy                     =  -39.103387647180320
*** Psi4 exiting successfully. Buy a developer a beer!
