                               Psi4 1.2a1.dev938

  ==> Input File <==

--------------------------------------------------------------------------
# Any line starting with the # character is a comment line
memory 250000 mb
molecule molecule{
-1 2
C          0.0000000000        0.0000000000        0.0997578423
H          0.0000000000        0.8741780617       -0.5943763735
H          0.0000000000       -0.8741780617       -0.5943763735
}

set {
  reference uhf
  basis aug-cc-pv(d+d)z
  scf_type OUT_OF_CORE
  freeze_core true
}

energy('ccsd')
--------------------------------------------------------------------------

    Molecular point group: c2v

    Geometry (in Angstrom), charge = -1, multiplicity = 2:

       Center              X                  Y                   Z               Mass
    ------------   -----------------  -----------------  -----------------  -----------------
           C         -0.000000000000     0.000000000000     0.099826384805    12.000000000000
           H         -0.000000000000     0.874178061700    -0.594307830995     1.007825032070
           H          0.000000000000    -0.874178061700    -0.594307830995     1.007825032070

  Charge       = -1
  Multiplicity = 2
  Basis Set: AUG-CC-PV(D+D)Z
    Blend: AUG-CC-PV(D+D)Z

    Orbital Energies (a.u.)
    -----------------------

    Alpha Occupied:

       1A1   -10.963399     2A1    -0.614322     1B2    -0.256881
       3A1    -0.097045     1B1    -0.069763

    Alpha Virtual:

       4A1     0.172266     2B2     0.189603     5A1     0.287154
       2B1     0.293977     3B2     0.313650     6A1     0.360150
       4B2     0.521282     7A1     0.521578     8A1     0.575302
       1A2     0.587644     3B1     0.611771     5B2     0.675306
       9A1     0.736477     6B2     0.767449     4B1     0.795605
      10A1     0.796421     7B2     0.843546     2A2     0.848618
      11A1     0.895358     5B1     1.161651     8B2     1.203386
      12A1     1.226928    13A1     1.249179     9B2     1.614128
       3A2     1.800575     6B1     1.870653    14A1     1.879822
      15A1     1.972522    10B2     2.243173    16A1     2.351260
       7B1     2.413967    11B2     2.458672     4A2     2.471494
      17A1     2.678091    18A1     2.992362    12B2     3.081372

    Beta Occupied:

       1A1   -10.943433     2A1    -0.532595     1B2    -0.242603
       3A1    -0.046377

    Beta Virtual:

       4A1     0.172995     2B2     0.189955     1B1     0.258301
       5A1     0.293812     3B2     0.312880     6A1     0.370000
       2B1     0.446857     4B2     0.528049     7A1     0.529969
       8A1     0.585057     1A2     0.607162     3B1     0.647807
       5B2     0.675796     6B2     0.768011     9A1     0.771933
      10A1     0.809614     4B1     0.830949     7B2     0.848724
       2A2     0.867492    11A1     0.898741     8B2     1.214764
      12A1     1.243322     5B1     1.260549    13A1     1.272611
       9B2     1.623088     3A2     1.841990    14A1     1.889240
       6B1     1.919081    15A1     2.025216    10B2     2.242667
      16A1     2.385881     7B1     2.441261    11B2     2.469580
       4A2     2.500145    17A1     2.684602    18A1     2.998703
      12B2     3.089310

    Final Occupation by Irrep:
             A1    A2    B1    B2
    DOCC [     3,    0,    0,    1 ]
    SOCC [     0,    0,    1,    0 ]

  Energy converged.

  @UHF Final Energy:   -38.89215643721898

   => Energetics <=

    Nuclear Repulsion Energy =              5.9914846340844354
    One-Electron Energy =                 -66.0008619389349604
    Two-Electron Energy =                  21.1172208676315520
    PCM Polarization Energy =               0.0000000000000000
    Total Energy =                        -38.8921564372189721

    Alert: EFP and PCM quantities not currently incorporated into SCF psivars.
  UHF NO Occupations:
  HONO-2 :    2 A1 1.9984719
  HONO-1 :    3 A1 1.9926420
  HONO-0 :    1 B1 1.0000000
  LUNO+0 :    4 A1 0.0073580
  LUNO+1 :    5 A1 0.0015281
  LUNO+2 :    2 B2 0.0006738
  LUNO+3 :    6 A1 0.0000004

Properties will be evaluated at   0.000000,   0.000000,   0.000000 Bohr

Properties computed using the SCF density matrix

  Nuclear Dipole Moment: (a.u.)
     X:     0.0000      Y:     0.0000      Z:    -1.1143

  Electronic Dipole Moment: (a.u.)
     X:     0.0000      Y:     0.0000      Z:     0.3391

  Dipole Moment: (a.u.)
     X:     0.0000      Y:     0.0000      Z:    -0.7752     Total:     0.7752

  Dipole Moment: (Debye)
     X:     0.0000      Y:     0.0000      Z:    -1.9704     Total:     1.9704

*** tstop() called on cqc05 at Thu Aug 20 19:53:37 2020
Module time:
	user time   =       0.49 seconds =       0.01 minutes
	system time =       0.02 seconds =       0.00 minutes
	total time  =          0 seconds =       0.00 minutes
Total time:
	user time   =       0.49 seconds =       0.01 minutes
	system time =       0.02 seconds =       0.00 minutes
	total time  =          0 seconds =       0.00 minutes

*** tstart() called on cqc05
*** at Thu Aug 20 19:53:37 2020

	Wfn Parameters:
	--------------------
	Wavefunction         = CCSD
	Number of irreps     = 4
	Number of MOs        = 41
	Number of active MOs = 40
	AO-Basis             = NONE
	Semicanonical        = false
	Reference            = UHF
	Print Level          = 1

	IRREP	# MOs	# FZDC	# DOCC	# SOCC	# VIRT	# FZVR
	-----	-----	------	------	------	------	------
	 A1	   18	    1	    2	    0	    15	    0
	 A2	   4	    0	    0	    0	    4	    0
	 B1	   7	    0	    0	    1	    6	    0
	 B2	   12	    0	    1	    0	    11	    0
	Transforming integrals...
	IWL integrals will be deleted.
	(OO|OO)...
	Presorting SO-basis two-electron integrals.
	Sorting File: SO Ints (nn|nn) nbuckets = 1
	Transforming the one-electron integrals and constructing Fock matrices
	Starting AA/AB first half-transformation.
	Sorting AA/AB half-transformed integrals.
	Starting BB first half-transformation.
	Sorting BB half-transformed integrals.
	First half integral transformation complete.
	Starting AA second half-transformation.
	Starting AB second half-transformation.
	Starting BB second half-transformation.
	Two-electron integral transformation complete.
	(OO|OV)...
	Starting AA second half-transformation.
	Starting AB second half-transformation.
	Starting BB second half-transformation.
	Two-electron integral transformation complete.
	(OO|VV)...
	Starting AA second half-transformation.
	Starting AB second half-transformation.
	Starting BB second half-transformation.
	Two-electron integral transformation complete.
	(OV|OO)...
	Starting AA/AB first half-transformation.
	Sorting AA/AB half-transformed integrals.
	Starting BB first half-transformation.
	Sorting BB half-transformed integrals.
	First half integral transformation complete.
	Starting AA second half-transformation.
	Starting AB second half-transformation.
	Starting BB second half-transformation.
	Two-electron integral transformation complete.
	(OV|OV)...
	Starting AA second half-transformation.
	Starting AB second half-transformation.
	Starting BB second half-transformation.
	Two-electron integral transformation complete.
	(OV|VV)...
	Starting AA second half-transformation.
	Starting AB second half-transformation.
	Starting BB second half-transformation.
	Two-electron integral transformation complete.
	(VV|OO)...
	Starting AA/AB first half-transformation.
	Sorting AA/AB half-transformed integrals.
	Starting BB first half-transformation.
	Sorting BB half-transformed integrals.
	First half integral transformation complete.
	Starting AA second half-transformation.
	Starting AB second half-transformation.
	Starting BB second half-transformation.
	Two-electron integral transformation complete.
	(VV|OV)...
	Starting AA second half-transformation.
	Starting AB second half-transformation.
	Starting BB second half-transformation.
	Two-electron integral transformation complete.
	(VV|VV)...
	Starting AA second half-transformation.
	Starting AB second half-transformation.
	Starting BB second half-transformation.
	Two-electron integral transformation complete.
	Frozen core energy     =    -34.25523874185171

	Size of irrep 0 of <AB|CD> integrals:      0.033 (MW) /      0.262 (MB)
	Size of irrep 1 of <AB|CD> integrals:      0.016 (MW) /      0.127 (MB)
	Size of irrep 2 of <AB|CD> integrals:      0.018 (MW) /      0.144 (MB)
	Size of irrep 3 of <AB|CD> integrals:      0.036 (MW) /      0.286 (MB)
	Total:                                     0.102 (MW) /      0.819 (MB)

	Size of irrep 0 of <ab|cd> integrals:      0.035 (MW) /      0.280 (MB)
	Size of irrep 1 of <ab|cd> integrals:      0.019 (MW) /      0.150 (MB)
	Size of irrep 2 of <ab|cd> integrals:      0.022 (MW) /      0.178 (MB)
	Size of irrep 3 of <ab|cd> integrals:      0.037 (MW) /      0.298 (MB)
	Total:                                     0.113 (MW) /      0.906 (MB)

	Size of irrep 0 of <Ab|Cd> integrals:      0.163 (MW) /      1.306 (MB)
	Size of irrep 1 of <Ab|Cd> integrals:      0.069 (MW) /      0.553 (MB)
	Size of irrep 2 of <Ab|Cd> integrals:      0.080 (MW) /      0.641 (MB)
	Size of irrep 3 of <Ab|Cd> integrals:      0.146 (MW) /      1.167 (MB)
	Total:                                     0.458 (MW) /      3.667 (MB)

	Size of irrep 0 of <IA|BC> integrals:      0.019 (MW) /      0.150 (MB)
	Size of irrep 1 of <IA|BC> integrals:      0.006 (MW) /      0.050 (MB)
	Size of irrep 2 of <IA|BC> integrals:      0.008 (MW) /      0.066 (MB)
	Size of irrep 3 of <IA|BC> integrals:      0.015 (MW) /      0.124 (MB)
	Total:                                     0.049 (MW) /      0.390 (MB)

	Size of irrep 0 of <ia|bc> integrals:      0.017 (MW) /      0.135 (MB)
	Size of irrep 1 of <ia|bc> integrals:      0.004 (MW) /      0.033 (MB)
	Size of irrep 2 of <ia|bc> integrals:      0.005 (MW) /      0.043 (MB)
	Size of irrep 3 of <ia|bc> integrals:      0.014 (MW) /      0.114 (MB)
	Total:                                     0.041 (MW) /      0.325 (MB)

	Size of irrep 0 of <Ia|Bc> integrals:      0.019 (MW) /      0.155 (MB)
	Size of irrep 1 of <Ia|Bc> integrals:      0.007 (MW) /      0.055 (MB)
	Size of irrep 2 of <Ia|Bc> integrals:      0.009 (MW) /      0.075 (MB)
	Size of irrep 3 of <Ia|Bc> integrals:      0.016 (MW) /      0.125 (MB)
	Total:                                     0.051 (MW) /      0.410 (MB)

	Size of irrep 0 of <iA|bC> integrals:      0.017 (MW) /      0.133 (MB)
	Size of irrep 1 of <iA|bC> integrals:      0.004 (MW) /      0.029 (MB)
	Size of irrep 2 of <iA|bC> integrals:      0.005 (MW) /      0.036 (MB)
	Size of irrep 3 of <iA|bC> integrals:      0.014 (MW) /      0.113 (MB)
	Total:                                     0.039 (MW) /      0.311 (MB)

	Size of irrep 0 of tIjAb amplitudes:       0.002 (MW) /      0.016 (MB)
	Size of irrep 1 of tIjAb amplitudes:       0.000 (MW) /      0.002 (MB)
	Size of irrep 2 of tIjAb amplitudes:       0.001 (MW) /      0.005 (MB)
	Size of irrep 3 of tIjAb amplitudes:       0.002 (MW) /      0.012 (MB)
	Total:                                     0.004 (MW) /      0.035 (MB)

	Nuclear Rep. energy          =      5.99148463408444
	SCF energy                   =    -38.89215643721898
	One-electron energy          =    -19.39721731774642
	Two-electron (AA) energy     =      2.29153444350449
	Two-electron (BB) energy     =      1.06762252415319
	Two-electron (AB) energy     =      5.40965802063711
	Two-electron energy          =      8.76881498829478
	Reference energy             =    -38.89215643721892

*** tstop() called on cqc05 at Thu Aug 20 19:53:38 2020
Module time:
	user time   =       0.08 seconds =       0.00 minutes
	system time =       0.08 seconds =       0.00 minutes
	total time  =          1 seconds =       0.02 minutes
Total time:
	user time   =       0.57 seconds =       0.01 minutes
	system time =       0.10 seconds =       0.00 minutes
	total time  =          1 seconds =       0.02 minutes

*** tstart() called on cqc05
*** at Thu Aug 20 19:53:38 2020

            **************************
            *                        *
            *        CCENERGY        *
            *                        *
            **************************

    Nuclear Rep. energy (wfn)     =    5.991484634084435
    SCF energy          (wfn)     =  -38.892156437218979
    Reference energy    (file100) =  -38.892156437218922

    Input parameters:
    -----------------
    Wave function   =     CCSD
    Reference wfn   =     UHF
    Brueckner       =     No
    Memory (Mbytes) =     250000.0
    Maxiter         =     50
    R_Convergence   =     1.0e-07
    E_Convergence   =     1.0e-06
    Restart         =     Yes
    DIIS            =     Yes
    AO Basis        =     NONE
    ABCD            =     NEW
    Cache Level     =     2
    Cache Type      =     LRU
    Print Level     =     1
    Num. of threads =     4
    # Amps to Print =     10
    Print MP2 Amps? =     No
    Analyze T2 Amps =     No
    Print Pair Ener =     No
    Local CC        =     No
    SCS-MP2         =     False
    SCSN-MP2        =     False
    SCS-CCSD        =     False

MP2 correlation energy -0.1461012040762005
                Solving CC Amplitude Equations
                ------------------------------
  Iter             Energy              RMS        T1Diag      D1Diag    New D1Diag    D2Diag
  ----     ---------------------    ---------   ----------  ----------  ----------   --------
     0        -0.146101204076201    0.000e+00    0.000000    0.000000    0.000000    0.000000
     1        -0.159927322461012    5.834e-02    0.015896    0.000000    0.000000    0.000000
     2        -0.165096808604223    2.164e-02    0.020477    0.000000    0.000000    0.000000
     3        -0.166479466957449    1.226e-02    0.025137    0.000000    0.000000    0.000000
     4        -0.166487202566469    5.606e-03    0.027741    0.000000    0.000000    0.000000
     5        -0.166450223368298    2.719e-03    0.028689    0.000000    0.000000    0.000000
     6        -0.166475130014207    1.383e-03    0.029105    0.000000    0.000000    0.000000
     7        -0.166489415947441    6.838e-04    0.029149    0.000000    0.000000    0.000000
     8        -0.166495412259533    3.141e-04    0.029141    0.000000    0.000000    0.000000
     9        -0.166494868817916    1.547e-04    0.029144    0.000000    0.000000    0.000000
    10        -0.166493717833894    8.727e-05    0.029140    0.000000    0.000000    0.000000
    11        -0.166494486298083    4.655e-05    0.029142    0.000000    0.000000    0.000000
    12        -0.166494994676024    2.470e-05    0.029143    0.000000    0.000000    0.000000
    13        -0.166495230103574    1.297e-05    0.029145    0.000000    0.000000    0.000000
    14        -0.166495288411362    6.706e-06    0.029146    0.000000    0.000000    0.000000
    15        -0.166495251037162    3.091e-06    0.029146    0.000000    0.000000    0.000000
    16        -0.166495241237104    1.759e-06    0.029146    0.000000    0.000000    0.000000
    17        -0.166495243004652    8.425e-07    0.029146    0.000000    0.000000    0.000000
    18        -0.166495245162035    4.607e-07    0.029146    0.000000    0.000000    0.000000
    19        -0.166495250703348    2.835e-07    0.029146    0.000000    0.000000    0.000000
    20        -0.166495254216940    1.480e-07    0.029146    0.000000    0.000000    0.000000
    21        -0.166495254430008    8.729e-08    0.029146    0.000000    0.000000    0.000000
    21        -0.166495254430008    8.729e-08    0.029146    0.000000    0.000000    0.000000

    Iterations converged.

    CCSD corr. energy   =   -0.166495254430008
    PPL corr. energy    =    0.042329788667185
    OS PPL corr. energy =    0.036271765779041
    SS PPL corr. energy =    0.006058022888143
    Largest TIA Amplitudes:
              2  19        -0.0490669526
              1   1        -0.0383817115
              2  20        -0.0136972905
              1   2         0.0113848650
              1   4         0.0093097210
              0   1        -0.0083162214
              1   5         0.0069723747
              1   6        -0.0066163947
              0   2         0.0060945678
              3  34         0.0058585600

    Largest Tia Amplitudes:
              1   9        -0.0120442163
              1   0         0.0109958686
              1   1        -0.0108471178
              2  32         0.0095512476
              1   4         0.0091703359
              1   7         0.0085644623
              0   8        -0.0080358387
              0   4         0.0074421496
              0   3         0.0073974218
              1   5        -0.0066766479

    Largest TIJAB Amplitudes:
      2   1  19   1        -0.0321634525
      2   1  20   4         0.0238953426
      3   2  27  19        -0.0208790206
      3   1  27   4         0.0198977773
      3   2  15   3         0.0195085268
      3   2  27  20        -0.0172634527
      2   1  19   4         0.0167640175
      2   1  22   9         0.0166944401
      3   1  27   1        -0.0160177473
      3   2  27  22        -0.0154253535

    Largest Tijab Amplitudes:
      2   1  28   4         0.0185261414
      2   1  28   1        -0.0175397527
      2   1  28   9         0.0127407688
      2   1  32   9         0.0126455796
      1   0  21  20        -0.0121018477
      2   1  29   3         0.0120856860
      2   1  32   4         0.0119081769
      2   1  28   3        -0.0118428532
      2   1  29   7        -0.0102895005
      2   1  32   1        -0.0096860851

    Largest TIjAb Amplitudes:
      2   1  19   1        -0.0533560748
      1   1   1   1        -0.0527169860
      3   2  27  28        -0.0447109694
      1   1   4   4        -0.0434665683
      2   1   1  20        -0.0369870571
      3   2  31  32        -0.0365737509
      1   1  27  28        -0.0348594200
      1   1   9   9        -0.0342502188
      1   1   4   1         0.0337959843
      3   2   3   3        -0.0317968022

    SCF energy       (wfn)                    =  -38.892156437218979
    Reference energy (file100)                =  -38.892156437218922

    Opposite-spin MP2 correlation energy      =   -0.114128439255970
    Same-spin MP2 correlation energy          =   -0.031972764820223
    MP2 correlation energy                    =   -0.146101204076201
      * MP2 total energy                      =  -39.038257641295125

    Opposite-spin CCSD correlation energy     =   -0.135957918412555
    Same-spin CCSD correlation energy         =   -0.030537335256509

      * CCSD total energy                     =  -39.058651691648933
*** Psi4 exiting successfully. Buy a developer a beer!
