                               Psi4 1.4a3.dev88

  ==> Input File <==

--------------------------------------------------------------------------
# Any line starting with the # character is a comment line
memory 250000 mb
molecule molecule{
1 2
C          0.0000000000        0.0000000000        0.6448765675
O          0.0000000000        0.0000000000       -0.4841189327
}

set {
  reference uhf
  basis aug-cc-pv(q+d)z
  scf_type OUT_OF_CORE
  freeze_core true
}

energy('ccsd(t)')
--------------------------------------------------------------------------

    Molecular point group: c2v

    Geometry (in Angstrom), charge = 1, multiplicity = 2:

       Center              X                  Y                   Z               Mass
    ------------   -----------------  -----------------  -----------------  -----------------
         C            0.000000000000     0.000000000000     0.645052391728    12.000000000000
         O            0.000000000000     0.000000000000    -0.483943108472    15.994914619570

  Charge       = 1
  Multiplicity = 2
  Basis Set: AUG-CC-PV(Q+D)Z
    Blend: AUG-CC-PV(Q+D)Z

    Orbital Energies [Eh]
    ---------------------

    Alpha Occupied:

       1A1   -21.072733     2A1   -11.861630     3A1    -1.887967
       4A1    -1.207604     5A1    -1.077076     1B1    -0.988311
       1B2    -0.988311

    Alpha Virtual:

       2B1    -0.246437     2B2    -0.246436     6A1    -0.121532
       7A1    -0.090619     3B2    -0.085007     3B1    -0.085007
       8A1    -0.016231     4B1     0.006472     4B2     0.006472
       9A1     0.015737     1A2     0.015737    10A1     0.037642
      11A1     0.090523     5B2     0.096494     5B1     0.096494
       6B2     0.161611     6B1     0.161611    12A1     0.163785
      13A1     0.265023    14A1     0.300804     2A2     0.300804
      15A1     0.339137     7B1     0.388774     7B2     0.388774
       3A2     0.451122    16A1     0.451122     8B2     0.481597
       8B1     0.481597    17A1     0.515123     9B1     0.531227
       9B2     0.531227    18A1     0.611100     4A2     0.627165
      19A1     0.627165    10B1     0.627357    10B2     0.627357
      20A1     0.639195    11B1     0.766471    11B2     0.766471
      21A1     0.852629    22A1     1.160798    12B2     1.170893
      12B1     1.170893    23A1     1.240693     5A2     1.240693
      13B2     1.246342    13B1     1.246342    24A1     1.393502
      14B2     1.467557    14B1     1.467557    25A1     1.470799
       6A2     1.470799    26A1     1.476081    15B2     1.646050
      15B1     1.646050    27A1     1.765378    28A1     1.774221
       7A2     1.774221     8A2     1.780652    29A1     1.780652
      16B2     1.874346    16B1     1.874346    30A1     1.914678
      17B1     1.932982    17B2     1.932982     9A2     1.990195
      31A1     1.990195    18B2     2.027079    18B1     2.027079
      32A1     2.136188    19B1     2.254425    19B2     2.254425
      20B1     2.477855    20B2     2.477855    33A1     2.629736
      10A2     2.666780    34A1     2.666780    35A1     3.137832
      11A2     3.402046    36A1     3.402046    21B1     3.425109
      21B2     3.425109    37A1     3.673476    22B2     3.754789
      22B1     3.754789    12A2     3.863626    38A1     3.863626
      23B2     3.889893    23B1     3.889893    24B2     3.952297
      24B1     3.952297    39A1     3.997452    40A1     4.050119
      13A2     4.050119    41A1     4.186556    25B2     4.388177
      25B1     4.388177    42A1     4.760003    43A1     4.788073
      14A2     4.788073    26B1     4.790855    26B2     4.790855
      15A2     5.486819    44A1     5.486819    45A1     5.541024
      27B1     5.705351    27B2     5.705351    28B1     5.767047
      28B2     5.767047    16A2     5.822206    46A1     5.822206
      47A1     5.922744    29B1     5.930487    29B2     5.930487
      30B2     6.000320    30B1     6.000320    17A2     6.164567
      48A1     6.164567    49A1     6.841579    18A2     6.924581
      50A1     6.924581    31B1     7.058805    31B2     7.058805
      51A1     7.814166    52A1     8.115480    32B1     8.208430
      32B2     8.208430    53A1    10.238778    19A2    10.238778
      33B2    10.515451    33B1    10.515451    54A1    10.767127
      20A2    10.767127    34B1    10.769152    34B2    10.769153
      55A1    11.008913    35B2    11.021123    35B1    11.021123
      36B1    11.486970    36B2    11.486970    56A1    11.675100
      57A1    11.914624    21A2    11.914624    37B2    12.369735
      37B1    12.369735    22A2    12.543369    58A1    12.543369
      59A1    13.433636    38B1    13.831098    38B2    13.831098
      60A1    14.152558    61A1    24.651608    62A1    42.877213

    Beta Occupied:

       1A1   -21.102119     2A1   -11.800193     3A1    -1.926818
       4A1    -1.165011     1B2    -1.060202     1B1    -1.060202

    Beta Virtual:

       5A1    -0.404345     2B1    -0.178289     2B2    -0.178289
       6A1    -0.101718     7A1    -0.086101     3B1    -0.071673
       3B2    -0.071673     8A1    -0.009562     4B2     0.002091
       4B1     0.002091     9A1     0.021139     1A2     0.021139
      10A1     0.044989    11A1     0.105090     5B1     0.106439
       5B2     0.106439     6B1     0.177742     6B2     0.177742
      12A1     0.182320    13A1     0.290218    14A1     0.301914
       2A2     0.301914    15A1     0.388311     7B2     0.390469
       7B1     0.390469    16A1     0.482227     3A2     0.482227
       8B1     0.486987     8B2     0.486987    17A1     0.532167
       9B1     0.542791     9B2     0.542791    18A1     0.618890
      10B2     0.626966    10B1     0.626966    19A1     0.633118
       4A2     0.633118    20A1     0.646813    11B1     0.778586
      11B2     0.778586    21A1     0.880571    12B2     1.168945
      12B1     1.168945    22A1     1.180010    23A1     1.218908
       5A2     1.218908    13B2     1.263151    13B1     1.263151
      24A1     1.401252     6A2     1.473567    25A1     1.473567
      26A1     1.497487    14B1     1.501611    14B2     1.501611
      15B1     1.664392    15B2     1.664392     7A2     1.784706
      27A1     1.784706    28A1     1.834907     8A2     1.848104
      29A1     1.848104    16B1     1.905308    16B2     1.905308
      30A1     1.953843    17B1     1.963996    17B2     1.963996
       9A2     2.010793    31A1     2.010793    18B2     2.037416
      18B1     2.037416    32A1     2.157333    19B2     2.251059
      19B1     2.251060    20B2     2.479075    20B1     2.479075
      33A1     2.641507    10A2     2.675306    34A1     2.675306
      35A1     3.166872    11A2     3.396315    36A1     3.396315
      21B2     3.423781    21B1     3.423781    37A1     3.665311
      22B1     3.732599    22B2     3.732599    12A2     3.841705
      38A1     3.841705    23B2     3.888475    23B1     3.888475
      24B2     3.950520    24B1     3.950520    39A1     3.989960
      13A2     4.018860    40A1     4.018860    41A1     4.195832
      25B2     4.403252    25B1     4.403252    42A1     4.778641
      14A2     4.789935    43A1     4.789935    26B2     4.791091
      26B1     4.791091    15A2     5.517255    44A1     5.517255
      45A1     5.552673    27B1     5.736444    27B2     5.736444
      28B1     5.823441    28B2     5.823441    46A1     5.874337
      16A2     5.874337    29B1     5.953476    29B2     5.953476
      47A1     5.979748    30B2     6.047771    30B1     6.047771
      17A2     6.204155    48A1     6.204155    49A1     6.860816
      18A2     6.951104    50A1     6.951104    31B1     7.096097
      31B2     7.096097    51A1     7.846267    52A1     8.152482
      32B1     8.229286    32B2     8.229286    53A1    10.213674
      19A2    10.213674    33B2    10.498523    33B1    10.498523
      34B2    10.728386    34B1    10.728386    20A2    10.755550
      54A1    10.755550    55A1    11.002282    35B2    11.012714
      35B1    11.012714    36B1    11.443277    36B2    11.443277
      56A1    11.659448    21A2    11.887749    57A1    11.887749
      37B2    12.354965    37B1    12.354965    22A2    12.492953
      58A1    12.492953    59A1    13.433768    38B2    13.813001
      38B1    13.813002    60A1    14.149528    61A1    24.685630
      62A1    42.860083

    Final Occupation by Irrep:
             A1    A2    B1    B2
    DOCC [     4,    0,    1,    1 ]
    SOCC [     1,    0,    0,    0 ]

  @UHF Final Energy:  -112.30875109050928

   => Energetics <=

    Nuclear Repulsion Energy =             22.4983236050633835
    One-Electron Energy =                -192.4159724801901916
    Two-Electron Energy =                  57.6088977846175396
    Total Energy =                       -112.3087510905092756

  UHF NO Occupations:
  HONO-2 :    1 B1 1.9332979
  HONO-1 :    1 B2 1.9332959
  HONO-0 :    5 A1 1.0000000
  LUNO+0 :    2 B2 0.0667041
  LUNO+1 :    2 B1 0.0667021
  LUNO+2 :    6 A1 0.0007737
  LUNO+3 :    7 A1 0.0002149

Computation Completed

Properties will be evaluated at   0.000000,   0.000000,   0.000000 [a0]

Properties computed using the SCF density matrix

  Nuclear Dipole Moment: [e a0]
     X:     0.0000      Y:     0.0000      Z:    -0.0023

  Electronic Dipole Moment: [e a0]
     X:     0.0000      Y:     0.0000      Z:     1.2005

  Dipole Moment: [e a0]
     X:     0.0000      Y:     0.0000      Z:     1.1982     Total:     1.1982

  Dipole Moment: [D]
     X:     0.0000      Y:     0.0000      Z:     3.0455     Total:     3.0455

*** tstop() called on n412-037.vsc4.prov at Wed Jan 20 18:44:05 2021
Module time:
	user time   =      78.49 seconds =       1.31 minutes
	system time =       2.54 seconds =       0.04 minutes
	total time  =         29 seconds =       0.48 minutes
Total time:
	user time   =      78.49 seconds =       1.31 minutes
	system time =       2.54 seconds =       0.04 minutes
	total time  =         29 seconds =       0.48 minutes

*** tstart() called on n412-037.vsc4.prov
*** at Wed Jan 20 18:44:05 2021

	Wfn Parameters:
	--------------------
	Wavefunction         = CCSD_T
	Number of irreps     = 4
	Number of MOs        = 160
	Number of active MOs = 158
	AO-Basis             = NONE
	Semicanonical        = false
	Reference            = UHF
	Print Level          = 1

	IRREP	# MOs	# FZDC	# DOCC	# SOCC	# VIRT	# FZVR
	-----	-----	------	------	------	------	------
	 A1	   62	    2	    2	    1	    57	    0
	 A2	   22	    0	    0	    0	    22	    0
	 B1	   38	    0	    1	    0	    37	    0
	 B2	   38	    0	    1	    0	    37	    0
	Transforming integrals...
	IWL integrals will be deleted.
	(OO|OO)...
	Presorting SO-basis two-electron integrals.
	Sorting File: SO Ints (nn|nn) nbuckets = 1
	Constructing frozen core operators
	Starting AA/AB first half-transformation.
	Sorting AA/AB half-transformed integrals.
	Starting BB first half-transformation.
	Sorting BB half-transformed integrals.
	First half integral transformation complete.
	Starting AA second half-transformation.
	Starting AB second half-transformation.
	Starting BB second half-transformation.
	Two-electron integral transformation complete.
	(OO|OV)...
	Starting AA second half-transformation.
	Starting AB second half-transformation.
	Starting BB second half-transformation.
	Two-electron integral transformation complete.
	(OO|VV)...
	Starting AA second half-transformation.
	Starting AB second half-transformation.
	Starting BB second half-transformation.
	Two-electron integral transformation complete.
	(OV|OO)...
	Starting AA/AB first half-transformation.
	Sorting AA/AB half-transformed integrals.
	Starting BB first half-transformation.
	Sorting BB half-transformed integrals.
	First half integral transformation complete.
	Starting AA second half-transformation.
	Starting AB second half-transformation.
	Starting BB second half-transformation.
	Two-electron integral transformation complete.
	(OV|OV)...
	Starting AA second half-transformation.
	Starting AB second half-transformation.
	Starting BB second half-transformation.
	Two-electron integral transformation complete.
	(OV|VV)...
	Starting AA second half-transformation.
	Starting AB second half-transformation.
	Starting BB second half-transformation.
	Two-electron integral transformation complete.
	(VV|OO)...
	Starting AA/AB first half-transformation.
	Sorting AA/AB half-transformed integrals.
	Starting BB first half-transformation.
	Sorting BB half-transformed integrals.
	First half integral transformation complete.
	Starting AA second half-transformation.
	Starting AB second half-transformation.
	Starting BB second half-transformation.
	Two-electron integral transformation complete.
	(VV|OV)...
	Starting AA second half-transformation.
	Starting AB second half-transformation.
	Starting BB second half-transformation.
	Two-electron integral transformation complete.
	(VV|VV)...
	Starting AA second half-transformation.
	Starting AB second half-transformation.
	Starting BB second half-transformation.
	Two-electron integral transformation complete.
	Frozen core energy     =   -102.71591816766495

	Size of irrep 0 of <AB|CD> integrals:      9.979 (MW) /     79.834 (MB)
	Size of irrep 1 of <AB|CD> integrals:      6.880 (MW) /     55.041 (MB)
	Size of irrep 2 of <AB|CD> integrals:      8.544 (MW) /     68.351 (MB)
	Size of irrep 3 of <AB|CD> integrals:      8.544 (MW) /     68.351 (MB)
	Total:                                    33.947 (MW) /    271.578 (MB)

	Size of irrep 0 of <ab|cd> integrals:     10.343 (MW) /     82.741 (MB)
	Size of irrep 1 of <ab|cd> integrals:      6.996 (MW) /     55.968 (MB)
	Size of irrep 2 of <ab|cd> integrals:      8.762 (MW) /     70.093 (MB)
	Size of irrep 3 of <ab|cd> integrals:      8.762 (MW) /     70.093 (MB)
	Total:                                    34.862 (MW) /    278.895 (MB)

	Size of irrep 0 of <Ab|Cd> integrals:     42.615 (MW) /    340.918 (MB)
	Size of irrep 1 of <Ab|Cd> integrals:     27.752 (MW) /    222.015 (MB)
	Size of irrep 2 of <Ab|Cd> integrals:     34.610 (MW) /    276.878 (MB)
	Size of irrep 3 of <Ab|Cd> integrals:     34.610 (MW) /    276.878 (MB)
	Total:                                   139.586 (MW) /   1116.688 (MB)

	Size of irrep 0 of <IA|BC> integrals:      1.585 (MW) /     12.683 (MB)
	Size of irrep 1 of <IA|BC> integrals:      0.734 (MW) /      5.876 (MB)
	Size of irrep 2 of <IA|BC> integrals:      1.111 (MW) /      8.886 (MB)
	Size of irrep 3 of <IA|BC> integrals:      1.111 (MW) /      8.886 (MB)
	Total:                                     4.541 (MW) /     36.331 (MB)

	Size of irrep 0 of <ia|bc> integrals:      1.251 (MW) /     10.011 (MB)
	Size of irrep 1 of <ia|bc> integrals:      0.624 (MW) /      4.994 (MB)
	Size of irrep 2 of <ia|bc> integrals:      0.912 (MW) /      7.293 (MB)
	Size of irrep 3 of <ia|bc> integrals:      0.912 (MW) /      7.293 (MB)
	Total:                                     3.699 (MW) /     29.591 (MB)

	Size of irrep 0 of <Ia|Bc> integrals:      1.619 (MW) /     12.952 (MB)
	Size of irrep 1 of <Ia|Bc> integrals:      0.738 (MW) /      5.900 (MB)
	Size of irrep 2 of <Ia|Bc> integrals:      1.124 (MW) /      8.989 (MB)
	Size of irrep 3 of <Ia|Bc> integrals:      1.124 (MW) /      8.989 (MB)
	Total:                                     4.604 (MW) /     36.830 (MB)

	Size of irrep 0 of <iA|bC> integrals:      1.227 (MW) /      9.818 (MB)
	Size of irrep 1 of <iA|bC> integrals:      0.622 (MW) /      4.973 (MB)
	Size of irrep 2 of <iA|bC> integrals:      0.900 (MW) /      7.201 (MB)
	Size of irrep 3 of <iA|bC> integrals:      0.900 (MW) /      7.201 (MB)
	Total:                                     3.649 (MW) /     29.193 (MB)

	Size of irrep 0 of tIjAb amplitudes:       0.052 (MW) /      0.418 (MB)
	Size of irrep 1 of tIjAb amplitudes:       0.011 (MW) /      0.084 (MB)
	Size of irrep 2 of tIjAb amplitudes:       0.029 (MW) /      0.235 (MB)
	Size of irrep 3 of tIjAb amplitudes:       0.029 (MW) /      0.235 (MB)
	Total:                                     0.122 (MW) /      0.973 (MB)

	Nuclear Rep. energy          =     22.49832360506338
	SCF energy                   =   -112.30875109050928
	One-electron energy          =    -52.82081206042834
	Two-electron (AA) energy     =      4.83627790272981
	Two-electron (BB) energy     =      3.68776116376617
	Two-electron (AB) energy     =     12.20561646602324
	Two-electron energy          =     20.72965553251923
	Reference energy             =   -112.30875109051067

*** tstop() called on n412-037.vsc4.prov at Wed Jan 20 18:45:04 2021
Module time:
	user time   =      19.59 seconds =       0.33 minutes
	system time =       8.23 seconds =       0.14 minutes
	total time  =         59 seconds =       0.98 minutes
Total time:
	user time   =      98.08 seconds =       1.63 minutes
	system time =      10.77 seconds =       0.18 minutes
	total time  =         88 seconds =       1.47 minutes
            **************************
            *                        *
            *        CCENERGY        *
            *                        *
            **************************

    Nuclear Rep. energy (wfn)     =   22.498323605063383
    SCF energy          (wfn)     = -112.308751090509276
    Reference energy    (file100) = -112.308751090510668

    Input parameters:
    -----------------
    Wave function   =     CCSD_T
    Reference wfn   =     UHF
    Brueckner       =     No
    Memory (Mbytes) =     250000.0
    Maxiter         =     50
    R_Convergence   =     1.0e-07
    E_Convergence   =     1.0e-06
    Restart         =     Yes
    DIIS            =     Yes
    AO Basis        =     NONE
    ABCD            =     NEW
    Cache Level     =     2
    Cache Type      =     LRU
    Print Level     =     1
    Num. of threads =     48
    # Amps to Print =     10
    Print MP2 Amps? =     No
    Analyze T2 Amps =     No
    Print Pair Ener =     No
    Local CC        =     No
    SCS-MP2         =     False
    SCSN-MP2        =     False
    SCS-CCSD        =     False

MP2 correlation energy -0.3334978856145555
                Solving CC Amplitude Equations
                ------------------------------
  Iter             Energy              RMS        T1Diag      D1Diag    New D1Diag    D2Diag
  ----     ---------------------    ---------   ----------  ----------  ----------   --------
     0        -0.333497885614555    0.000e+00    0.000000    0.000000    0.000000    0.000000
     1        -0.320334199620406    1.062e-01    0.031113    0.000000    0.000000    0.000000
     2        -0.336473925729549    4.720e-02    0.039832    0.000000    0.000000    0.000000
     3        -0.345807639044557    3.844e-02    0.065116    0.000000    0.000000    0.000000
     4        -0.347458668373675    1.565e-02    0.076721    0.000000    0.000000    0.000000
     5        -0.347862576864587    6.961e-03    0.081442    0.000000    0.000000    0.000000
     6        -0.348019191777818    2.246e-03    0.081739    0.000000    0.000000    0.000000
     7        -0.348039627933161    1.224e-03    0.081866    0.000000    0.000000    0.000000
     8        -0.348058231565129    4.889e-04    0.081919    0.000000    0.000000    0.000000
     9        -0.348070008245835    1.826e-04    0.081932    0.000000    0.000000    0.000000
    10        -0.348069306995743    6.520e-05    0.081927    0.000000    0.000000    0.000000
    11        -0.348070754401979    3.228e-05    0.081930    0.000000    0.000000    0.000000
    12        -0.348071363035298    1.703e-05    0.081930    0.000000    0.000000    0.000000
    13        -0.348071451583092    9.539e-06    0.081933    0.000000    0.000000    0.000000
    14        -0.348071561024242    3.231e-06    0.081934    0.000000    0.000000    0.000000
    15        -0.348071499021905    1.535e-06    0.081934    0.000000    0.000000    0.000000
    16        -0.348071539888776    3.692e-07    0.081935    0.000000    0.000000    0.000000
    17        -0.348071553410999    1.879e-07    0.081935    0.000000    0.000000    0.000000
    18        -0.348071555308714    5.753e-08    0.081935    0.000000    0.000000    0.000000

    Iterations converged.

    Largest TIA Amplitudes:
              4 116        -0.0827397681
              3  79        -0.0827373737
              4 118        -0.0172783499
              3  81        -0.0172780164

      * MP2 total energy                      = -112.642248976125231
      * CCSD total energy                     = -112.656822645819389
      * CCSD(T) total energy                     = -112.675086077737674
*** Psi4 exiting successfully. Buy a developer a beer!
