                               Psi4 1.4a3.dev88

  ==> Input File <==

--------------------------------------------------------------------------
# Any line starting with the # character is a comment line
memory 250000 mb
molecule molecule{
1 2
C          0.0000000000        0.0000000000        0.6448765675
O          0.0000000000        0.0000000000       -0.4841189327
}

set {
  reference uhf
  basis aug-cc-pV(5+d)Z
  scf_type OUT_OF_CORE
  freeze_core true
}

energy('ccsd(t)')
--------------------------------------------------------------------------

    Molecular point group: c2v

    Geometry (in Angstrom), charge = 1, multiplicity = 2:

       Center              X                  Y                   Z               Mass
    ------------   -----------------  -----------------  -----------------  -----------------
         C            0.000000000000     0.000000000000     0.645052391728    12.000000000000
         O            0.000000000000     0.000000000000    -0.483943108472    15.994914619570

  Charge       = 1
  Multiplicity = 2
  Basis Set: AUG-CC-PV(5+D)Z
    Blend: AUG-CC-PV(5+D)Z

    Orbital Energies [Eh]
    ---------------------

    Alpha Occupied:

       1A1   -21.072047     2A1   -11.861312     3A1    -1.887651
       4A1    -1.207534     5A1    -1.077108     1B1    -0.988292
       1B2    -0.988292

    Alpha Virtual:

       2B1    -0.246420     2B2    -0.246420     6A1    -0.123803
       7A1    -0.092397     3B2    -0.087950     3B1    -0.087950
       8A1    -0.027963     4B1    -0.011797     4B2    -0.011797
       9A1     0.004038     1A2     0.004038    10A1     0.018257
      11A1     0.044974     5B2     0.060276     5B1     0.060276
      12A1     0.095642     6B1     0.095713     6B2     0.095713
      13A1     0.217170    14A1     0.243331     2A2     0.243331
      15A1     0.283864     7B1     0.296861     7B2     0.296861
       8B2     0.317533     8B1     0.317533     3A2     0.338758
      16A1     0.338758    17A1     0.367435     9B1     0.387924
       9B2     0.387924    10B2     0.408890    10B1     0.408890
      18A1     0.420279    19A1     0.431280     4A2     0.455112
      20A1     0.455112    11B2     0.538627    11B1     0.538627
      21A1     0.693166    12B2     0.822867    12B1     0.822867
      22A1     0.879952    13B2     0.890607    13B1     0.890607
       5A2     0.931914    23A1     0.931914    24A1     0.932139
      14B1     0.993260    14B2     0.993260    25A1     1.016829
       6A2     1.086660    26A1     1.086660    15B1     1.161545
      15B2     1.161545    27A1     1.169981     7A2     1.259144
      28A1     1.259144     8A2     1.282244    29A1     1.282244
      16B1     1.288180    16B2     1.288180    30A1     1.368286
      17B1     1.377775    17B2     1.377775     9A2     1.422649
      31A1     1.422649    18B2     1.467785    18B1     1.467785
      19B1     1.473938    19B2     1.473938    32A1     1.628269
      33A1     1.949297    20B1     1.952281    20B2     1.952281
      10A2     1.954237    34A1     1.954237    35A1     2.024830
      21B2     2.193397    21B1     2.193397    36A1     2.360484
      37A1     2.413573    11A2     2.413573    22B2     2.469952
      22B1     2.469952    23B2     2.575016    23B1     2.575016
      38A1     2.722560    12A2     2.749114    39A1     2.749114
      24B2     2.833078    24B1     2.833078    40A1     2.840458
      13A2     2.840458    25B2     2.915710    25B1     2.915710
      41A1     2.936312    42A1     3.075191    26B1     3.124943
      26B2     3.124943    14A2     3.203950    43A1     3.203950
      27B1     3.279211    27B2     3.279211    15A2     3.393410
      44A1     3.393410    28B1     3.478583    28B2     3.478583
      45A1     3.534127    16A2     3.614209    46A1     3.614209
      29B2     3.625151    29B1     3.625151    30B1     3.650918
      30B2     3.650918    47A1     3.676248    17A2     3.676248
      31B1     3.842943    31B2     3.842943    48A1     3.894187
      18A2     4.114104    49A1     4.114104    50A1     4.168224
      32B1     4.307390    32B2     4.307390    33B2     4.318473
      33B1     4.318473    19A2     4.333973    51A1     4.333973
      52A1     4.572445    34B1     4.659339    34B2     4.659339
      53A1     4.967199    35B1     5.367566    35B2     5.367566
      54A1     5.435265    20A2     5.435265    55A1     5.527545
      36B1     5.883780    36B2     5.883780    56A1     6.147251
      37B1     6.227057    37B2     6.227057    57A1     6.396379
      21A2     6.396379    22A2     6.750873    58A1     6.750873
      38B2     6.852108    38B1     6.852108    23A2     6.902526
      59A1     6.902526    39B2     6.990502    39B1     6.990502
      40B2     6.992939    40B1     6.992939    60A1     7.042358
      41B2     7.186468    41B1     7.186468    24A2     7.273030
      61A1     7.273030    62A1     7.317585    63A1     7.640247
      25A2     7.640247    42B2     7.664479    42B1     7.664479
      64A1     7.742654    43B1     8.363238    43B2     8.363238
      44B1     8.485198    44B2     8.485198    65A1     8.549492
      26A2     8.663263    66A1     8.663263    45B1     8.720240
      45B2     8.720240    67A1     8.993620    27A2     8.993620
      46B1     9.040263    46B2     9.040263    68A1     9.272668
      47B1     9.308874    47B2     9.308874    69A1     9.485137
      28A2     9.485137    70A1     9.517101    48B1     9.736474
      48B2     9.736474    71A1     9.889068    29A2     9.889068
      49B2    10.170810    49B1    10.170810    50B1    10.204927
      50B2    10.204927    72A1    10.477387    30A2    10.477387
      73A1    10.695543    74A1    11.183839    51B1    11.318423
      51B2    11.318423    75A1    11.323054    31A2    11.323054
      76A1    12.167112    52B1    12.248707    52B2    12.248707
      77A1    12.550713    32A2    12.550713    78A1    13.232719
      53B1    14.095522    53B2    14.095522    79A1    15.666041
      54B1    15.827115    54B2    15.827115    80A1    16.067017
      33A2    16.067017    55B1    16.342968    55B2    16.342968
      56B1    16.518165    56B2    16.518165    34A2    16.722840
      81A1    16.722840    82A1    16.936613    57B2    17.232015
      57B1    17.232015    83A1    18.002224    84A1    18.688919
      35A2    18.688919    58B2    18.922227    58B1    18.922227
      59B1    18.959851    59B2    18.959851    36A2    19.239703
      85A1    19.239703    60B2    19.465361    60B1    19.465361
      86A1    19.546637    37A2    19.677975    87A1    19.677975
      61B2    21.640076    61B1    21.640076    88A1    22.430617
      38A2    22.430617    89A1    22.779546    62B2    23.429598
      62B1    23.429598    90A1    24.138670    91A1    39.228231
      92A1    65.079304

    Beta Occupied:

       1A1   -21.101378     2A1   -11.799993     3A1    -1.926584
       4A1    -1.165020     1B2    -1.060316     1B1    -1.060316

    Beta Virtual:

       5A1    -0.404194     2B1    -0.178292     2B2    -0.178292
       6A1    -0.105496     7A1    -0.088765     3B1    -0.076488
       3B2    -0.076488     8A1    -0.022818     4B2    -0.014985
       4B1    -0.014985     9A1     0.008371     1A2     0.008371
      10A1     0.024416    11A1     0.064580     5B1     0.078072
       5B2     0.078072     6B1     0.097889     6B2     0.097889
      12A1     0.103029    13A1     0.232262    14A1     0.244492
       2A2     0.244492     7B2     0.293044     7B1     0.293044
      15A1     0.313740     8B1     0.319973     8B2     0.319973
      16A1     0.355734     3A2     0.355734    17A1     0.388015
       9B1     0.391111     9B2     0.391111    10B1     0.414826
      10B2     0.414826    18A1     0.426688    19A1     0.449187
       4A2     0.465295    20A1     0.465295    11B1     0.556502
      11B2     0.556502    21A1     0.735735    12B2     0.822384
      12B1     0.822384    22A1     0.889369    13B1     0.918178
      13B2     0.918178     5A2     0.922148    23A1     0.922148
      24A1     0.947043    14B2     0.994340    14B1     0.994341
      25A1     1.023745     6A2     1.085806    26A1     1.085806
      15B2     1.174339    15B1     1.174339    27A1     1.196346
       7A2     1.264480    28A1     1.264480    16B1     1.307092
      16B2     1.307092    29A1     1.329434     8A2     1.329434
      30A1     1.389600    17B1     1.389918    17B2     1.389918
       9A2     1.436612    31A1     1.436612    18B2     1.472901
      18B1     1.472901    19B2     1.477254    19B1     1.477254
      32A1     1.655813    20B2     1.945799    20B1     1.945799
      10A2     1.962461    33A1     1.962461    34A1     1.977066
      35A1     2.036742    21B1     2.220147    21B2     2.220147
      36A1     2.369734    11A2     2.412093    37A1     2.412093
      22B1     2.493328    22B2     2.493328    23B2     2.564326
      23B1     2.564326    38A1     2.722458    12A2     2.746729
      39A1     2.746729    13A2     2.803089    40A1     2.803089
      24B2     2.840480    24B1     2.840480    25B2     2.915079
      25B1     2.915079    41A1     2.969130    42A1     3.089111
      26B2     3.133713    26B1     3.133713    14A2     3.233831
      43A1     3.233831    27B2     3.293876    27B1     3.293876
      15A2     3.401842    44A1     3.401842    28B1     3.512384
      28B2     3.512384    45A1     3.564815    16A2     3.639515
      46A1     3.639515    29B2     3.646735    29B1     3.646735
      30B1     3.688674    30B2     3.688674    47A1     3.697017
      17A2     3.697017    31B1     3.852460    31B2     3.852460
      48A1     3.904813    18A2     4.130808    49A1     4.130808
      50A1     4.195255    32B2     4.303054    32B1     4.303054
      33B2     4.327109    33B1     4.327109    19A2     4.362751
      51A1     4.362751    52A1     4.606320    34B2     4.650473
      34B1     4.650473    53A1     4.984601    35B1     5.393627
      35B2     5.393627    54A1     5.446105    20A2     5.446105
      55A1     5.539415    36B1     5.878175    36B2     5.878175
      56A1     6.151052    37B2     6.220246    37B1     6.220246
      57A1     6.393622    21A2     6.393622    22A2     6.736018
      58A1     6.736018    38B2     6.833943    38B1     6.833943
      23A2     6.898759    59A1     6.898759    39B2     6.982331
      39B1     6.982331    40B2     6.991410    40B1     6.991410
      60A1     7.045361    41B2     7.200975    41B1     7.200975
      24A2     7.254166    61A1     7.254166    62A1     7.332694
      63A1     7.631415    25A2     7.631415    42B2     7.653908
      42B1     7.653908    64A1     7.745432    43B1     8.372820
      43B2     8.372820    44B1     8.506941    44B2     8.506941
      65A1     8.570609    26A2     8.684454    66A1     8.684454
      45B1     8.741677    45B2     8.741677    67A1     8.999733
      27A2     8.999733    46B1     9.069190    46B2     9.069190
      68A1     9.296566    47B1     9.339805    47B2     9.339805
      69A1     9.494318    28A2     9.494318    70A1     9.545799
      48B1     9.768613    48B2     9.768613    71A1     9.921154
      29A2     9.921154    49B2    10.197145    49B1    10.197145
      50B2    10.200089    50B1    10.200089    72A1    10.499651
      30A2    10.499651    73A1    10.717094    74A1    11.199185
      51B1    11.341781    51B2    11.341781    75A1    11.353849
      31A2    11.353849    76A1    12.181532    52B1    12.271541
      52B2    12.271541    77A1    12.569346    32A2    12.569346
      78A1    13.236836    53B1    14.114022    53B2    14.114022
      79A1    15.677534    54B1    15.809044    54B2    15.809044
      80A1    16.053545    33A2    16.053545    55B2    16.311481
      55B1    16.311481    56B1    16.508614    56B2    16.508614
      34A2    16.716569    81A1    16.716569    82A1    16.933905
      57B2    17.228406    57B1    17.228406    83A1    17.989701
      84A1    18.659795    35A2    18.659795    58B2    18.886632
      58B1    18.886632    59B2    18.937262    59B1    18.937262
      85A1    19.223307    36A2    19.223307    60B2    19.454595
      60B1    19.454595    86A1    19.537317    37A2    19.655809
      87A1    19.655809    61B2    21.629298    61B1    21.629298
      88A1    22.396471    38A2    22.396471    89A1    22.777602
      62B2    23.412799    62B1    23.412799    90A1    24.132240
      91A1    39.258046    92A1    65.068369

    Final Occupation by Irrep:
             A1    A2    B1    B2
    DOCC [     4,    0,    1,    1 ]
    SOCC [     1,    0,    0,    0 ]

  @UHF Final Energy:  -112.31044236396792

   => Energetics <=

    Nuclear Repulsion Energy =             22.4983236050633835
    One-Electron Energy =                -192.4216908595907398
    Two-Electron Energy =                  57.6129248905594409
    Total Energy =                       -112.3104423639679226

  UHF NO Occupations:
  HONO-2 :    1 B1 1.9331297
  HONO-1 :    1 B2 1.9331295
  HONO-0 :    5 A1 1.0000000
  LUNO+0 :    2 B2 0.0668705
  LUNO+1 :    2 B1 0.0668703
  LUNO+2 :    6 A1 0.0007759
  LUNO+3 :    7 A1 0.0002159

Computation Completed

Properties will be evaluated at   0.000000,   0.000000,   0.000000 [a0]

Properties computed using the SCF density matrix

  Nuclear Dipole Moment: [e a0]
     X:     0.0000      Y:     0.0000      Z:    -0.0023

  Electronic Dipole Moment: [e a0]
     X:     0.0000      Y:     0.0000      Z:     1.2006

  Dipole Moment: [e a0]
     X:     0.0000      Y:     0.0000      Z:     1.1983     Total:     1.1983

  Dipole Moment: [D]
     X:     0.0000      Y:     0.0000      Z:     3.0457     Total:     3.0457

*** tstop() called on n412-045.vsc4.prov at Thu Jan 21 11:09:05 2021
Module time:
	user time   =     247.00 seconds =       4.12 minutes
	system time =      17.35 seconds =       0.29 minutes
	total time  =        203 seconds =       3.38 minutes
Total time:
	user time   =     247.00 seconds =       4.12 minutes
	system time =      17.35 seconds =       0.29 minutes
	total time  =        203 seconds =       3.38 minutes

*** tstart() called on n412-045.vsc4.prov
*** at Thu Jan 21 11:09:05 2021

	Wfn Parameters:
	--------------------
	Wavefunction         = CCSD_T
	Number of irreps     = 4
	Number of MOs        = 254
	Number of active MOs = 252
	AO-Basis             = NONE
	Semicanonical        = false
	Reference            = UHF
	Print Level          = 1

	IRREP	# MOs	# FZDC	# DOCC	# SOCC	# VIRT	# FZVR
	-----	-----	------	------	------	------	------
	 A1	   92	    2	    2	    1	    87	    0
	 A2	   38	    0	    0	    0	    38	    0
	 B1	   62	    0	    1	    0	    61	    0
	 B2	   62	    0	    1	    0	    61	    0
	Transforming integrals...
	IWL integrals will be deleted.
	(OO|OO)...
	Presorting SO-basis two-electron integrals.
	Sorting File: SO Ints (nn|nn) nbuckets = 1
	Constructing frozen core operators
	Starting AA/AB first half-transformation.
	Sorting AA/AB half-transformed integrals.
	Starting BB first half-transformation.
	Sorting BB half-transformed integrals.
	First half integral transformation complete.
	Starting AA second half-transformation.
	Starting AB second half-transformation.
	Starting BB second half-transformation.
	Two-electron integral transformation complete.
	(OO|OV)...
	Starting AA second half-transformation.
	Starting AB second half-transformation.
	Starting BB second half-transformation.
	Two-electron integral transformation complete.
	(OO|VV)...
	Starting AA second half-transformation.
	Starting AB second half-transformation.
	Starting BB second half-transformation.
	Two-electron integral transformation complete.
	(OV|OO)...
	Starting AA/AB first half-transformation.
	Sorting AA/AB half-transformed integrals.
	Starting BB first half-transformation.
	Sorting BB half-transformed integrals.
	First half integral transformation complete.
	Starting AA second half-transformation.
	Starting AB second half-transformation.
	Starting BB second half-transformation.
	Two-electron integral transformation complete.
	(OV|OV)...
	Starting AA second half-transformation.
	Starting AB second half-transformation.
	Starting BB second half-transformation.
	Two-electron integral transformation complete.
	(OV|VV)...
	Starting AA second half-transformation.
	Starting AB second half-transformation.
	Starting BB second half-transformation.
	Two-electron integral transformation complete.
	(VV|OO)...
	Starting AA/AB first half-transformation.
	Sorting AA/AB half-transformed integrals.
	Starting BB first half-transformation.
	Sorting BB half-transformed integrals.
	First half integral transformation complete.
	Starting AA second half-transformation.
	Starting AB second half-transformation.
	Starting BB second half-transformation.
	Two-electron integral transformation complete.
	(VV|OV)...
	Starting AA second half-transformation.
	Starting AB second half-transformation.
	Starting BB second half-transformation.
	Two-electron integral transformation complete.
	(VV|VV)...
	Starting AA second half-transformation.
	Starting AB second half-transformation.
	Starting BB second half-transformation.
	Two-electron integral transformation complete.
	Frozen core energy     =   -102.71610518135793

	Size of irrep 0 of <AB|CD> integrals:     65.675 (MW) /    525.399 (MB)
	Size of irrep 1 of <AB|CD> integrals:     49.379 (MW) /    395.030 (MB)
	Size of irrep 2 of <AB|CD> integrals:     58.141 (MW) /    465.125 (MB)
	Size of irrep 3 of <AB|CD> integrals:     58.141 (MW) /    465.125 (MB)
	Total:                                   231.335 (MW) /   1850.678 (MB)

	Size of irrep 0 of <ab|cd> integrals:     67.092 (MW) /    536.740 (MB)
	Size of irrep 1 of <ab|cd> integrals:     49.914 (MW) /    399.314 (MB)
	Size of irrep 2 of <ab|cd> integrals:     59.075 (MW) /    472.597 (MB)
	Size of irrep 3 of <ab|cd> integrals:     59.075 (MW) /    472.597 (MB)
	Total:                                   235.156 (MW) /   1881.247 (MB)

	Size of irrep 0 of <Ab|Cd> integrals:    273.638 (MW) /   2189.102 (MB)
	Size of irrep 1 of <Ab|Cd> integrals:    198.584 (MW) /   1588.676 (MB)
	Size of irrep 2 of <Ab|Cd> integrals:    234.427 (MW) /   1875.414 (MB)
	Size of irrep 3 of <Ab|Cd> integrals:    234.427 (MW) /   1875.414 (MB)
	Total:                                   941.076 (MW) /   7528.605 (MB)

	Size of irrep 0 of <IA|BC> integrals:      6.302 (MW) /     50.418 (MB)
	Size of irrep 1 of <IA|BC> integrals:      3.317 (MW) /     26.534 (MB)
	Size of irrep 2 of <IA|BC> integrals:      4.697 (MW) /     37.576 (MB)
	Size of irrep 3 of <IA|BC> integrals:      4.697 (MW) /     37.576 (MB)
	Total:                                    19.013 (MW) /    152.104 (MB)

	Size of irrep 0 of <ia|bc> integrals:      4.956 (MW) /     39.646 (MB)
	Size of irrep 1 of <ia|bc> integrals:      2.798 (MW) /     22.382 (MB)
	Size of irrep 2 of <ia|bc> integrals:      3.812 (MW) /     30.498 (MB)
	Size of irrep 3 of <ia|bc> integrals:      3.812 (MW) /     30.498 (MB)
	Total:                                    15.378 (MW) /    123.024 (MB)

	Size of irrep 0 of <Ia|Bc> integrals:      6.385 (MW) /     51.082 (MB)
	Size of irrep 1 of <Ia|Bc> integrals:      3.326 (MW) /     26.606 (MB)
	Size of irrep 2 of <Ia|Bc> integrals:      4.731 (MW) /     37.849 (MB)
	Size of irrep 3 of <Ia|Bc> integrals:      4.731 (MW) /     37.849 (MB)
	Total:                                    19.173 (MW) /    153.385 (MB)

	Size of irrep 0 of <iA|bC> integrals:      4.896 (MW) /     39.171 (MB)
	Size of irrep 1 of <iA|bC> integrals:      2.790 (MW) /     22.322 (MB)
	Size of irrep 2 of <iA|bC> integrals:      3.782 (MW) /     30.255 (MB)
	Size of irrep 3 of <iA|bC> integrals:      3.782 (MW) /     30.255 (MB)
	Total:                                    15.250 (MW) /    122.002 (MB)

	Size of irrep 0 of tIjAb amplitudes:       0.132 (MW) /      1.059 (MB)
	Size of irrep 1 of tIjAb amplitudes:       0.028 (MW) /      0.225 (MB)
	Size of irrep 2 of tIjAb amplitudes:       0.077 (MW) /      0.612 (MB)
	Size of irrep 3 of tIjAb amplitudes:       0.077 (MW) /      0.612 (MB)
	Total:                                     0.314 (MW) /      2.509 (MB)

	Nuclear Rep. energy          =     22.49832360506338
	SCF energy                   =   -112.31044236396792
	One-electron energy          =    -52.82420799756829
	Two-electron (AA) energy     =      4.83655897611060
	Two-electron (BB) energy     =      3.68854807047772
	Two-electron (AB) energy     =     12.20644016330137
	Two-electron energy          =     20.73154720988970
	Reference energy             =   -112.31044236397315

*** tstop() called on n412-045.vsc4.prov at Thu Jan 21 11:14:13 2021
Module time:
	user time   =     108.32 seconds =       1.81 minutes
	system time =      70.50 seconds =       1.18 minutes
	total time  =        308 seconds =       5.13 minutes
Total time:
	user time   =     355.32 seconds =       5.92 minutes
	system time =      87.85 seconds =       1.46 minutes
	total time  =        511 seconds =       8.52 minutes
            **************************
            *                        *
            *        CCENERGY        *
            *                        *
            **************************

      * MP2 total energy                      = -112.652027551673513
      * CCSD total energy                     = -112.664606609903714
      * CCSD(T) total energy                     = -112.683329595462354
*** Psi4 exiting successfully. Buy a developer a beer!
