                               Psi4 1.4a3.dev88

  ==> Input File <==

--------------------------------------------------------------------------
# Any line starting with the # character is a comment line
memory 250000 mb
molecule molecule{
1 2
C          0.0000000000        0.0000000000        0.6448765675
O          0.0000000000        0.0000000000       -0.4841189327
}

set {
  reference uhf
  basis aug-cc-pV(t+d)Z
  scf_type OUT_OF_CORE
  freeze_core true
}

energy('ccsd(t)')
--------------------------------------------------------------------------

    Molecular point group: c2v

    Geometry (in Angstrom), charge = 1, multiplicity = 2:

       Center              X                  Y                   Z               Mass
    ------------   -----------------  -----------------  -----------------  -----------------
         C            0.000000000000     0.000000000000     0.645052391728    12.000000000000
         O            0.000000000000     0.000000000000    -0.483943108472    15.994914619570

  Charge       = 1
  Multiplicity = 2
  Basis Set: AUG-CC-PV(T+D)Z
    Blend: AUG-CC-PV(T+D)Z

    Orbital Energies [Eh]
    ---------------------

    Alpha Occupied:

       1A1   -21.075334     2A1   -11.862757     3A1    -1.889251
       4A1    -1.207788     5A1    -1.077027     1B1    -0.988466
       1B2    -0.988466

    Alpha Virtual:

       2B1    -0.246578     2B2    -0.246577     6A1    -0.119159
       7A1    -0.088786     3B2    -0.081880     3B1    -0.081880
       8A1    -0.000952     4B1     0.025404     4B2     0.025405
       9A1     0.054281     1A2     0.054281    10A1     0.062821
      11A1     0.144526     5B2     0.163460     5B1     0.163460
       6B2     0.236543     6B1     0.236543    12A1     0.243064
      13A1     0.377628    14A1     0.441845     2A2     0.460044
      15A1     0.460044     7B1     0.566068     7B2     0.566068
      16A1     0.681950     3A2     0.681950    17A1     0.709538
       8B2     0.762013     8B1     0.762013     9B1     0.772423
       9B2     0.772424    10B2     0.899012    10B1     0.899012
      18A1     0.917795    19A1     0.963061     4A2     0.963061
      20A1     1.088274    11B1     1.147669    11B2     1.147669
      21A1     1.171675    12B2     1.834359    12B1     1.834359
      22A1     1.868452     5A2     1.868452    23A1     1.961125
      13B2     1.965966    13B1     1.965966    24A1     2.112037
      14B2     2.205892    14B1     2.205892    25A1     2.265221
       6A2     2.265221    26A1     2.281997    15B2     2.598271
      15B1     2.598271     7A2     2.927933    27A1     2.927933
      16B1     3.004356    16B2     3.004356    28A1     3.004642
      17B1     3.149340    17B2     3.149340    29A1     3.325658
       8A2     3.325658    18B1     3.606485    18B2     3.606485
      30A1     3.613346    31A1     4.003334    19B1     4.846768
      19B2     4.846768    32A1     4.949938    20B2     6.116046
      20B1     6.116046    33A1     6.389590     9A2     6.389590
      34A1     6.675968    10A2     6.675968    21B1     6.726852
      21B2     6.726852    35A1     6.830637    22B1     7.062338
      22B2     7.062338    36A1     7.228552    37A1    12.117277
      38A1    14.887670

    Beta Occupied:

       1A1   -21.104486     2A1   -11.801495     3A1    -1.927818
       4A1    -1.164985     1B2    -1.059816     1B1    -1.059816

    Beta Virtual:

       5A1    -0.404888     2B1    -0.178389     2B2    -0.178389
       6A1    -0.097947     7A1    -0.083249     3B1    -0.066654
       3B2    -0.066654     8A1     0.006707     4B2     0.019793
       4B1     0.019793     9A1     0.063449     1A2     0.063449
      10A1     0.072509    11A1     0.163625     5B1     0.173385
       5B2     0.173385     6B1     0.260611     6B2     0.260611
      12A1     0.267918    13A1     0.419913     2A2     0.457911
      14A1     0.457911    15A1     0.495203     7B2     0.573633
       7B1     0.573633    16A1     0.729681     3A2     0.732463
      17A1     0.732463     8B2     0.774370     8B1     0.774370
       9B2     0.777199     9B1     0.777199    10B1     0.916013
      10B2     0.916013    18A1     0.934322    19A1     0.974770
       4A2     0.974770    20A1     1.091838    11B1     1.160796
      11B2     1.160796    21A1     1.196117    22A1     1.824039
       5A2     1.824039    12B2     1.826942    12B1     1.826942
      13B2     1.977143    13B1     1.977143    23A1     2.003619
      24A1     2.120283    14B1     2.235473    14B2     2.235473
       6A2     2.264754    25A1     2.264754    26A1     2.331584
      15B1     2.618267    15B2     2.618267    27A1     3.012194
       7A2     3.012194    16B1     3.050317    16B2     3.050317
      28A1     3.083359    17B1     3.217530    17B2     3.217530
       8A2     3.362481    29A1     3.362481    18B2     3.598586
      18B1     3.598586    30A1     3.651797    31A1     3.999859
      19B2     4.830802    19B1     4.830803    32A1     4.951462
      20B2     6.078258    20B1     6.078258    33A1     6.368325
       9A2     6.368325    34A1     6.606117    10A2     6.606117
      21B2     6.718659    21B1     6.718660    35A1     6.825399
      22B2     7.032836    22B1     7.032836    36A1     7.219615
      37A1    12.156355    38A1    14.872887

    Final Occupation by Irrep:
             A1    A2    B1    B2
    DOCC [     4,    0,    1,    1 ]
    SOCC [     1,    0,    0,    0 ]

  @UHF Final Energy:  -112.30086732049821

   => Energetics <=

    Nuclear Repulsion Energy =             22.4983236050633835
    One-Electron Energy =                -192.3908768253828043
    Two-Electron Energy =                  57.5916858998212149
    Total Energy =                       -112.3008673204982131

  UHF NO Occupations:
  HONO-2 :    1 B1 1.9339730
  HONO-1 :    1 B2 1.9339716
  HONO-0 :    5 A1 1.0000000
  LUNO+0 :    2 B2 0.0660284
  LUNO+1 :    2 B1 0.0660270
  LUNO+2 :    6 A1 0.0007600
  LUNO+3 :    7 A1 0.0002109

Computation Completed

Properties will be evaluated at   0.000000,   0.000000,   0.000000 [a0]

Properties computed using the SCF density matrix

  Nuclear Dipole Moment: [e a0]
     X:     0.0000      Y:     0.0000      Z:    -0.0023

  Electronic Dipole Moment: [e a0]
     X:     0.0000      Y:     0.0000      Z:     1.2026

  Dipole Moment: [e a0]
     X:     0.0000      Y:     0.0000      Z:     1.2002     Total:     1.2002

  Dipole Moment: [D]
     X:     0.0000      Y:     0.0000      Z:     3.0507     Total:     3.0507

*** tstop() called on n412-040.vsc4.prov at Tue Jan 26 18:09:20 2021
Module time:
	user time   =      38.22 seconds =       0.64 minutes
	system time =       1.23 seconds =       0.02 minutes
	total time  =          5 seconds =       0.08 minutes
Total time:
	user time   =      38.22 seconds =       0.64 minutes
	system time =       1.23 seconds =       0.02 minutes
	total time  =          5 seconds =       0.08 minutes

*** tstart() called on n412-040.vsc4.prov
*** at Tue Jan 26 18:09:20 2021

	Wfn Parameters:
	--------------------
	Wavefunction         = CCSD_T
	Number of irreps     = 4
	Number of MOs        = 92
	Number of active MOs = 90
	AO-Basis             = NONE
	Semicanonical        = false
	Reference            = UHF
	Print Level          = 1

	IRREP	# MOs	# FZDC	# DOCC	# SOCC	# VIRT	# FZVR
	-----	-----	------	------	------	------	------
	 A1	   38	    2	    2	    1	    33	    0
	 A2	   10	    0	    0	    0	    10	    0
	 B1	   22	    0	    1	    0	    21	    0
	 B2	   22	    0	    1	    0	    21	    0
	Transforming integrals...
	IWL integrals will be deleted.
	(OO|OO)...
	Presorting SO-basis two-electron integrals.
	Sorting File: SO Ints (nn|nn) nbuckets = 1
	Constructing frozen core operators
	Starting AA/AB first half-transformation.
	Sorting AA/AB half-transformed integrals.
	Starting BB first half-transformation.
	Sorting BB half-transformed integrals.
	First half integral transformation complete.
	Starting AA second half-transformation.
	Starting AB second half-transformation.
	Starting BB second half-transformation.
	Two-electron integral transformation complete.
	(OO|OV)...
	Starting AA second half-transformation.
	Starting AB second half-transformation.
	Starting BB second half-transformation.
	Two-electron integral transformation complete.
	(OO|VV)...
	Starting AA second half-transformation.
	Starting AB second half-transformation.
	Starting BB second half-transformation.
	Two-electron integral transformation complete.
	(OV|OO)...
	Starting AA/AB first half-transformation.
	Sorting AA/AB half-transformed integrals.
	Starting BB first half-transformation.
	Sorting BB half-transformed integrals.
	First half integral transformation complete.
	Starting AA second half-transformation.
	Starting AB second half-transformation.
	Starting BB second half-transformation.
	Two-electron integral transformation complete.
	(OV|OV)...
	Starting AA second half-transformation.
	Starting AB second half-transformation.
	Starting BB second half-transformation.
	Two-electron integral transformation complete.
	(OV|VV)...
	Starting AA second half-transformation.
	Starting AB second half-transformation.
	Starting BB second half-transformation.
	Two-electron integral transformation complete.
	(VV|OO)...
	Starting AA/AB first half-transformation.
	Sorting AA/AB half-transformed integrals.
	Starting BB first half-transformation.
	Sorting BB half-transformed integrals.
	First half integral transformation complete.
	Starting AA second half-transformation.
	Starting AB second half-transformation.
	Starting BB second half-transformation.
	Two-electron integral transformation complete.
	(VV|OV)...
	Starting AA second half-transformation.
	Starting AB second half-transformation.
	Starting BB second half-transformation.
	Two-electron integral transformation complete.
	(VV|VV)...
	Starting AA second half-transformation.
	Starting AB second half-transformation.
	Starting BB second half-transformation.
	Two-electron integral transformation complete.
	Frozen core energy     =   -102.71416796035263

	Size of irrep 0 of <AB|CD> integrals:      0.986 (MW) /      7.888 (MB)
	Size of irrep 1 of <AB|CD> integrals:      0.594 (MW) /      4.756 (MB)
	Size of irrep 2 of <AB|CD> integrals:      0.815 (MW) /      6.523 (MB)
	Size of irrep 3 of <AB|CD> integrals:      0.815 (MW) /      6.523 (MB)
	Total:                                     3.211 (MW) /     25.690 (MB)

	Size of irrep 0 of <ab|cd> integrals:      1.053 (MW) /      8.421 (MB)
	Size of irrep 1 of <ab|cd> integrals:      0.610 (MW) /      4.880 (MB)
	Size of irrep 2 of <ab|cd> integrals:      0.854 (MW) /      6.830 (MB)
	Size of irrep 3 of <ab|cd> integrals:      0.854 (MW) /      6.830 (MB)
	Total:                                     3.370 (MW) /     26.962 (MB)

	Size of irrep 0 of <Ab|Cd> integrals:      4.427 (MW) /     35.415 (MB)
	Size of irrep 1 of <Ab|Cd> integrals:      2.409 (MW) /     19.270 (MB)
	Size of irrep 2 of <Ab|Cd> integrals:      3.338 (MW) /     26.703 (MB)
	Size of irrep 3 of <Ab|Cd> integrals:      3.338 (MW) /     26.703 (MB)
	Total:                                    13.511 (MW) /    108.091 (MB)

	Size of irrep 0 of <IA|BC> integrals:      0.292 (MW) /      2.336 (MB)
	Size of irrep 1 of <IA|BC> integrals:      0.111 (MW) /      0.888 (MB)
	Size of irrep 2 of <IA|BC> integrals:      0.191 (MW) /      1.531 (MB)
	Size of irrep 3 of <IA|BC> integrals:      0.191 (MW) /      1.531 (MB)
	Total:                                     0.786 (MW) /      6.287 (MB)

	Size of irrep 0 of <ia|bc> integrals:      0.235 (MW) /      1.881 (MB)
	Size of irrep 1 of <ia|bc> integrals:      0.097 (MW) /      0.775 (MB)
	Size of irrep 2 of <ia|bc> integrals:      0.159 (MW) /      1.271 (MB)
	Size of irrep 3 of <ia|bc> integrals:      0.159 (MW) /      1.271 (MB)
	Total:                                     0.650 (MW) /      5.199 (MB)

	Size of irrep 0 of <Ia|Bc> integrals:      0.303 (MW) /      2.424 (MB)
	Size of irrep 1 of <Ia|Bc> integrals:      0.112 (MW) /      0.894 (MB)
	Size of irrep 2 of <Ia|Bc> integrals:      0.195 (MW) /      1.564 (MB)
	Size of irrep 3 of <Ia|Bc> integrals:      0.195 (MW) /      1.564 (MB)
	Total:                                     0.806 (MW) /      6.446 (MB)

	Size of irrep 0 of <iA|bC> integrals:      0.227 (MW) /      1.818 (MB)
	Size of irrep 1 of <iA|bC> integrals:      0.096 (MW) /      0.770 (MB)
	Size of irrep 2 of <iA|bC> integrals:      0.155 (MW) /      1.242 (MB)
	Size of irrep 3 of <iA|bC> integrals:      0.155 (MW) /      1.242 (MB)
	Total:                                     0.634 (MW) /      5.072 (MB)

	Size of irrep 0 of tIjAb amplitudes:       0.017 (MW) /      0.135 (MB)
	Size of irrep 1 of tIjAb amplitudes:       0.003 (MW) /      0.025 (MB)
	Size of irrep 2 of tIjAb amplitudes:       0.009 (MW) /      0.073 (MB)
	Size of irrep 3 of tIjAb amplitudes:       0.009 (MW) /      0.073 (MB)
	Total:                                     0.038 (MW) /      0.306 (MB)

	Nuclear Rep. energy          =     22.49832360506338
	SCF energy                   =   -112.30086732049821
	One-electron energy          =    -52.80661341103388
	Two-electron (AA) energy     =      4.83517432284049
	Two-electron (BB) energy     =      3.68456718297466
	Two-electron (AB) energy     =     12.20184894000889
	Two-electron energy          =     20.72159044582404
	Reference energy             =   -112.30086732049907

*** tstop() called on n412-040.vsc4.prov at Tue Jan 26 18:09:29 2021
Module time:
	user time   =       2.13 seconds =       0.04 minutes
	system time =       1.31 seconds =       0.02 minutes
	total time  =          9 seconds =       0.15 minutes
Total time:
	user time   =      40.35 seconds =       0.67 minutes
	system time =       2.54 seconds =       0.04 minutes
	total time  =         14 seconds =       0.23 minutes
            **************************
            *                        *
            *        CCENERGY        *
            *                        *
            **************************

    Nuclear Rep. energy (wfn)     =   22.498323605063383
    SCF energy          (wfn)     = -112.300867320498213
    Reference energy    (file100) = -112.300867320499066

    Input parameters:
    -----------------
    Wave function   =     CCSD_T
    Reference wfn   =     UHF
    Brueckner       =     No
    Memory (Mbytes) =     250000.0
    Maxiter         =     50
    R_Convergence   =     1.0e-07
    E_Convergence   =     1.0e-06
    Restart         =     Yes
    DIIS            =     Yes
    AO Basis        =     NONE
    ABCD            =     NEW
    Cache Level     =     2
    Cache Type      =     LRU
    Print Level     =     1
    Num. of threads =     48
    # Amps to Print =     10
    Print MP2 Amps? =     No
    Analyze T2 Amps =     No
    Print Pair Ener =     No
    Local CC        =     No
    SCS-MP2         =     False
    SCSN-MP2        =     False
    SCS-CCSD        =     False

MP2 correlation energy -0.3136958254837324
                Solving CC Amplitude Equations
                ------------------------------
  Iter             Energy              RMS        T1Diag      D1Diag    New D1Diag    D2Diag
  ----     ---------------------    ---------   ----------  ----------  ----------   --------
     0        -0.313695825483732    0.000e+00    0.000000    0.000000    0.000000    0.000000
     1        -0.303381094997073    1.049e-01    0.030712    0.000000    0.000000    0.000000
     2        -0.319029022484061    4.704e-02    0.039550    0.000000    0.000000    0.000000
     3        -0.328441999463288    3.820e-02    0.064743    0.000000    0.000000    0.000000
     4        -0.330044998185758    1.558e-02    0.076246    0.000000    0.000000    0.000000
     5        -0.330496276267420    6.961e-03    0.080999    0.000000    0.000000    0.000000
     6        -0.330652909411982    2.281e-03    0.081319    0.000000    0.000000    0.000000
     7        -0.330676900884337    1.227e-03    0.081464    0.000000    0.000000    0.000000
     8        -0.330694941965504    4.930e-04    0.081509    0.000000    0.000000    0.000000
     9        -0.330705615191030    1.790e-04    0.081522    0.000000    0.000000    0.000000
    10        -0.330706357468348    6.293e-05    0.081517    0.000000    0.000000    0.000000
    11        -0.330707713545131    2.937e-05    0.081520    0.000000    0.000000    0.000000
    12        -0.330708415287318    1.576e-05    0.081521    0.000000    0.000000    0.000000
    13        -0.330708445073742    8.814e-06    0.081524    0.000000    0.000000    0.000000
    14        -0.330708485672987    3.095e-06    0.081524    0.000000    0.000000    0.000000
    15        -0.330708400339156    1.395e-06    0.081525    0.000000    0.000000    0.000000
    16        -0.330708411185308    3.191e-07    0.081525    0.000000    0.000000    0.000000
    17        -0.330708414819908    1.575e-07    0.081525    0.000000    0.000000    0.000000
    18        -0.330708413989422    4.681e-08    0.081525    0.000000    0.000000    0.000000

    Iterations converged.

    Largest TIA Amplitudes:
              4  64        -0.0801133213
              3  43        -0.0801116266
              4  71        -0.0224908012
              3  50        -0.0224906384
              4  66        -0.0182830160
              3  45        -0.0182827632
              4  67        -0.0160927813
              3  46        -0.0160924972
              4  73        -0.0133968796
              3  52        -0.0133967747

    Largest Tia Amplitudes:
              3  65         0.1128556071
              2  44         0.1128554572
              1   0         0.0997840767
              3  66         0.0431257239
              2  45         0.0431256099
              3  69         0.0260566004
              2  48         0.0260565549
              3  68         0.0233518822
              2  47         0.0233518305
              1   1         0.0180027947

    Largest TIJAB Amplitudes:
      4   3  64  43        -0.0524099878
      4   2  64   8        -0.0194942638
      3   2  43   8        -0.0194942333
      4   2  64   7         0.0155120483
      3   2  43   7         0.0155120275
      4   3  67  43        -0.0125883556
      4   3  64  46        -0.0125883524
      4   2  64  15         0.0106254707
      3   2  43  15         0.0106254640
      3   2  43  11        -0.0099980750

    Largest Tijab Amplitudes:
      3   2  65  44        -0.0241925075
      2   1  44   0        -0.0150073021
      3   1  65   0        -0.0150072796
      2   1  44  16         0.0098967401
      3   1  65  16         0.0098967346
      3   2  38  17        -0.0095829099
      3   1  65  11        -0.0088257198
      2   1  44  11        -0.0088256804
      2   1  44  10        -0.0082800121
      3   1  65  10        -0.0082799978

    Largest TIjAb Amplitudes:
      4   3  64  65        -0.0861856972

      * MP2 total energy                      = -112.614563145982800
      * CCSD total energy                     = -112.631575734488493
      * CCSD(T) total energy                     = -112.648672337084662
*** Psi4 exiting successfully. Buy a developer a beer!
