                               Psi4 1.4a3.dev88

  ==> Input File <==

--------------------------------------------------------------------------
# Any line starting with the # character is a comment line
memory 250000 mb
molecule molecule{
1 2
C          0.0000000000        0.0000000000        0.6448765675
O          0.0000000000        0.0000000000       -0.4841189327
}

set {
  reference uhf
  basis aug-cc-pV(d+d)Z
  scf_type OUT_OF_CORE
  freeze_core true
}

energy('ccsd(t)')
--------------------------------------------------------------------------

    Molecular point group: c2v

    Geometry (in Angstrom), charge = 1, multiplicity = 2:

       Center              X                  Y                   Z               Mass
    ------------   -----------------  -----------------  -----------------  -----------------
         C            0.000000000000     0.000000000000     0.645052391728    12.000000000000
         O            0.000000000000     0.000000000000    -0.483943108472    15.994914619570

  Charge       = 1
  Multiplicity = 2
  Basis Set: AUG-CC-PV(D+D)Z
    Blend: AUG-CC-PV(D+D)Z

    Orbital Energies [Eh]
    ---------------------

    Alpha Occupied:

       1A1   -21.085277     2A1   -11.873904     3A1    -1.895541
       4A1    -1.209141     5A1    -1.077824     1B2    -0.989375
       1B1    -0.989375

    Alpha Virtual:

       2B1    -0.246782     2B2    -0.246782     6A1    -0.115579
       7A1    -0.085926     3B1    -0.076701     3B2    -0.076701
       8A1     0.022247     4B1     0.056090     4B2     0.056090
       9A1     0.105120    10A1     0.142583     1A2     0.142583
      11A1     0.216528     5B2     0.297906     5B1     0.297906
      12A1     0.394879     6B1     0.409715     6B2     0.409715
      13A1     0.576689    14A1     0.686928    15A1     0.761514
       2A2     0.761514     7B1     0.890821     7B2     0.890821
      16A1     1.103841    17A1     1.230540     3A2     1.230540
       8B1     1.336263     8B2     1.336263     9B2     1.556042
       9B1     1.556042    18A1     1.784000    19A1     1.839325
      20A1     2.623025    21A1     3.221625     4A2     3.221625
      10B1     3.318893    10B2     3.318893    22A1     3.672451

    Beta Occupied:

       1A1   -21.115358     2A1   -11.813450     3A1    -1.934776
       4A1    -1.168490     1B2    -1.059948     1B1    -1.059948

    Beta Virtual:

       5A1    -0.405582     2B1    -0.178769     2B2    -0.178769
       6A1    -0.093127     7A1    -0.078104     3B1    -0.058339
       3B2    -0.058339     8A1     0.031223     4B2     0.047773
       4B1     0.047773     9A1     0.119879     1A2     0.162658
      10A1     0.162658    11A1     0.249774     5B2     0.312472
       5B1     0.312472    12A1     0.431569     6B1     0.455141
       6B2     0.455141    13A1     0.617371     2A2     0.746287
      14A1     0.746287    15A1     0.757880     7B2     0.894939
       7B1     0.894939    16A1     1.124186     8B2     1.306696
       8B1     1.306696     3A2     1.308866    17A1     1.308866
       9B2     1.615432     9B1     1.615432    18A1     1.809019
      19A1     1.865965    20A1     2.631104     4A2     3.152082
      21A1     3.152082    10B2     3.292849    10B1     3.292849
      22A1     3.658701

    Final Occupation by Irrep:
             A1    A2    B1    B2
    DOCC [     4,    0,    1,    1 ]
    SOCC [     1,    0,    0,    0 ]

  @UHF Final Energy:  -112.27373569001631

   => Energetics <=

    Nuclear Repulsion Energy =             22.4983236050633835
    One-Electron Energy =                -192.2717107740556912
    Two-Electron Energy =                  57.4996514789760127
    Total Energy =                       -112.2737356900163093

  UHF NO Occupations:
  HONO-2 :    1 B1 1.9336675
  HONO-1 :    1 B2 1.9336675
  HONO-0 :    5 A1 1.0000000
  LUNO+0 :    2 B2 0.0663325
  LUNO+1 :    2 B1 0.0663325
  LUNO+2 :    6 A1 0.0007352
  LUNO+3 :    7 A1 0.0001982

Computation Completed

Properties will be evaluated at   0.000000,   0.000000,   0.000000 [a0]

Properties computed using the SCF density matrix

  Nuclear Dipole Moment: [e a0]
     X:     0.0000      Y:     0.0000      Z:    -0.0023

  Electronic Dipole Moment: [e a0]
     X:     0.0000      Y:     0.0000      Z:     1.2046

  Dipole Moment: [e a0]
     X:     0.0000      Y:     0.0000      Z:     1.2023     Total:     1.2023

  Dipole Moment: [D]
     X:     0.0000      Y:     0.0000      Z:     3.0560     Total:     3.0560

*** tstop() called on n412-039.vsc4.prov at Tue Jan 26 18:16:34 2021
Module time:
	user time   =      24.49 seconds =       0.41 minutes
	system time =       0.94 seconds =       0.02 minutes
	total time  =          2 seconds =       0.03 minutes
Total time:
	user time   =      24.49 seconds =       0.41 minutes
	system time =       0.94 seconds =       0.02 minutes
	total time  =          2 seconds =       0.03 minutes

*** tstart() called on n412-039.vsc4.prov
*** at Tue Jan 26 18:16:34 2021

	Wfn Parameters:
	--------------------
	Wavefunction         = CCSD_T
	Number of irreps     = 4
	Number of MOs        = 46
	Number of active MOs = 44
	AO-Basis             = NONE
	Semicanonical        = false
	Reference            = UHF
	Print Level          = 1

	IRREP	# MOs	# FZDC	# DOCC	# SOCC	# VIRT	# FZVR
	-----	-----	------	------	------	------	------
	 A1	   22	    2	    2	    1	    17	    0
	 A2	   4	    0	    0	    0	    4	    0
	 B1	   10	    0	    1	    0	    9	    0
	 B2	   10	    0	    1	    0	    9	    0
	Transforming integrals...
	IWL integrals will be deleted.
	(OO|OO)...
	Presorting SO-basis two-electron integrals.
	Sorting File: SO Ints (nn|nn) nbuckets = 1
	Constructing frozen core operators
	Starting AA/AB first half-transformation.
	Sorting AA/AB half-transformed integrals.
	Starting BB first half-transformation.
	Sorting BB half-transformed integrals.
	First half integral transformation complete.
	Starting AA second half-transformation.
	Starting AB second half-transformation.
	Starting BB second half-transformation.
	Two-electron integral transformation complete.
	(OO|OV)...
	Starting AA second half-transformation.
	Starting AB second half-transformation.
	Starting BB second half-transformation.
	Two-electron integral transformation complete.
	(OO|VV)...
	Starting AA second half-transformation.
	Starting AB second half-transformation.
	Starting BB second half-transformation.
	Two-electron integral transformation complete.
	(OV|OO)...
	Starting AA/AB first half-transformation.
	Sorting AA/AB half-transformed integrals.
	Starting BB first half-transformation.
	Sorting BB half-transformed integrals.
	First half integral transformation complete.
	Starting AA second half-transformation.
	Starting AB second half-transformation.
	Starting BB second half-transformation.
	Two-electron integral transformation complete.
	(OV|OV)...
	Starting AA second half-transformation.
	Starting AB second half-transformation.
	Starting BB second half-transformation.
	Two-electron integral transformation complete.
	(OV|VV)...
	Starting AA second half-transformation.
	Starting AB second half-transformation.
	Starting BB second half-transformation.
	Two-electron integral transformation complete.
	(VV|OO)...
	Starting AA/AB first half-transformation.
	Sorting AA/AB half-transformed integrals.
	Starting BB first half-transformation.
	Sorting BB half-transformed integrals.
	First half integral transformation complete.
	Starting AA second half-transformation.
	Starting AB second half-transformation.
	Starting BB second half-transformation.
	Two-electron integral transformation complete.
	(VV|OV)...
	Starting AA second half-transformation.
	Starting AB second half-transformation.
	Starting BB second half-transformation.
	Two-electron integral transformation complete.
	(VV|VV)...
	Starting AA second half-transformation.
	Starting AB second half-transformation.
	Starting BB second half-transformation.
	Two-electron integral transformation complete.
	Frozen core energy     =   -102.71391431951952

	Size of irrep 0 of <AB|CD> integrals:      0.046 (MW) /      0.366 (MB)
	Size of irrep 1 of <AB|CD> integrals:      0.022 (MW) /      0.178 (MB)
	Size of irrep 2 of <AB|CD> integrals:      0.036 (MW) /      0.286 (MB)
	Size of irrep 3 of <AB|CD> integrals:      0.036 (MW) /      0.286 (MB)
	Total:                                     0.139 (MW) /      1.116 (MB)

	Size of irrep 0 of <ab|cd> integrals:      0.053 (MW) /      0.427 (MB)
	Size of irrep 1 of <ab|cd> integrals:      0.023 (MW) /      0.187 (MB)
	Size of irrep 2 of <ab|cd> integrals:      0.039 (MW) /      0.314 (MB)
	Size of irrep 3 of <ab|cd> integrals:      0.039 (MW) /      0.314 (MB)
	Total:                                     0.155 (MW) /      1.241 (MB)

	Size of irrep 0 of <Ab|Cd> integrals:      0.234 (MW) /      1.874 (MB)
	Size of irrep 1 of <Ab|Cd> integrals:      0.091 (MW) /      0.730 (MB)
	Size of irrep 2 of <Ab|Cd> integrals:      0.150 (MW) /      1.198 (MB)
	Size of irrep 3 of <Ab|Cd> integrals:      0.150 (MW) /      1.198 (MB)
	Total:                                     0.625 (MW) /      5.000 (MB)

	Size of irrep 0 of <IA|BC> integrals:      0.032 (MW) /      0.258 (MB)
	Size of irrep 1 of <IA|BC> integrals:      0.009 (MW) /      0.072 (MB)
	Size of irrep 2 of <IA|BC> integrals:      0.018 (MW) /      0.145 (MB)
	Size of irrep 3 of <IA|BC> integrals:      0.018 (MW) /      0.145 (MB)
	Total:                                     0.077 (MW) /      0.620 (MB)

	Size of irrep 0 of <ia|bc> integrals:      0.027 (MW) /      0.217 (MB)
	Size of irrep 1 of <ia|bc> integrals:      0.008 (MW) /      0.064 (MB)
	Size of irrep 2 of <ia|bc> integrals:      0.016 (MW) /      0.127 (MB)
	Size of irrep 3 of <ia|bc> integrals:      0.016 (MW) /      0.127 (MB)
	Total:                                     0.067 (MW) /      0.534 (MB)

	Size of irrep 0 of <Ia|Bc> integrals:      0.035 (MW) /      0.279 (MB)
	Size of irrep 1 of <Ia|Bc> integrals:      0.009 (MW) /      0.072 (MB)
	Size of irrep 2 of <Ia|Bc> integrals:      0.019 (MW) /      0.152 (MB)
	Size of irrep 3 of <Ia|Bc> integrals:      0.019 (MW) /      0.152 (MB)
	Total:                                     0.082 (MW) /      0.655 (MB)

	Size of irrep 0 of <iA|bC> integrals:      0.025 (MW) /      0.201 (MB)
	Size of irrep 1 of <iA|bC> integrals:      0.008 (MW) /      0.063 (MB)
	Size of irrep 2 of <iA|bC> integrals:      0.015 (MW) /      0.121 (MB)
	Size of irrep 3 of <iA|bC> integrals:      0.015 (MW) /      0.121 (MB)
	Total:                                     0.063 (MW) /      0.506 (MB)

	Size of irrep 0 of tIjAb amplitudes:       0.004 (MW) /      0.031 (MB)
	Size of irrep 1 of tIjAb amplitudes:       0.001 (MW) /      0.005 (MB)
	Size of irrep 2 of tIjAb amplitudes:       0.002 (MW) /      0.015 (MB)
	Size of irrep 3 of tIjAb amplitudes:       0.002 (MW) /      0.015 (MB)
	Total:                                     0.008 (MW) /      0.067 (MB)

	Nuclear Rep. energy          =     22.49832360506338
	SCF energy                   =   -112.27373569001631
	One-electron energy          =    -52.73187128188188
	Two-electron (AA) energy     =      4.82513838505578
	Two-electron (BB) energy     =      3.67733662426666
	Two-electron (AB) energy     =     12.17125129699921
	Two-electron energy          =     20.67372630632165
	Reference energy             =   -112.27373569001637

*** tstop() called on n412-039.vsc4.prov at Tue Jan 26 18:16:35 2021
Module time:
	user time   =       0.16 seconds =       0.00 minutes
	system time =       0.24 seconds =       0.00 minutes
	total time  =          1 seconds =       0.02 minutes
Total time:
	user time   =      24.65 seconds =       0.41 minutes
	system time =       1.18 seconds =       0.02 minutes
	total time  =          3 seconds =       0.05 minutes
            **************************
            *                        *
            *        CCENERGY        *
            *                        *
            **************************

    Nuclear Rep. energy (wfn)     =   22.498323605063383
    SCF energy          (wfn)     = -112.273735690016309
    Reference energy    (file100) = -112.273735690016366

    Input parameters:
    -----------------
    Wave function   =     CCSD_T
    Reference wfn   =     UHF
    Brueckner       =     No
    Memory (Mbytes) =     250000.0
    Maxiter         =     50
    R_Convergence   =     1.0e-07
    E_Convergence   =     1.0e-06
    Restart         =     Yes
    DIIS            =     Yes
    AO Basis        =     NONE
    ABCD            =     NEW
    Cache Level     =     2
    Cache Type      =     LRU
    Print Level     =     1
    Num. of threads =     48
    # Amps to Print =     10
    Print MP2 Amps? =     No
    Analyze T2 Amps =     No
    Print Pair Ener =     No
    Local CC        =     No
    SCS-MP2         =     False
    SCSN-MP2        =     False
    SCS-CCSD        =     False

MP2 correlation energy -0.2599374153845415
                Solving CC Amplitude Equations
                ------------------------------
  Iter             Energy              RMS        T1Diag      D1Diag    New D1Diag    D2Diag
  ----     ---------------------    ---------   ----------  ----------  ----------   --------
     0        -0.259937415384541    0.000e+00    0.000000    0.000000    0.000000    0.000000
     1        -0.254377352301875    1.023e-01    0.030083    0.000000    0.000000    0.000000
     2        -0.268433395992723    4.748e-02    0.039978    0.000000    0.000000    0.000000
     3        -0.278180492858134    3.803e-02    0.065363    0.000000    0.000000    0.000000
     4        -0.280001493175031    1.531e-02    0.076830    0.000000    0.000000    0.000000
     5        -0.280456738366696    6.635e-03    0.081039    0.000000    0.000000    0.000000
     6        -0.280607967985838    2.372e-03    0.081343    0.000000    0.000000    0.000000
     7        -0.280645340388019    1.293e-03    0.081528    0.000000    0.000000    0.000000
     8        -0.280664899957275    4.754e-04    0.081562    0.000000    0.000000    0.000000
     9        -0.280675653213011    1.375e-04    0.081563    0.000000    0.000000    0.000000
    10        -0.280678755953570    4.383e-05    0.081556    0.000000    0.000000    0.000000
    11        -0.280679898555727    1.078e-05    0.081558    0.000000    0.000000    0.000000
    12        -0.280680182688502    3.676e-06    0.081558    0.000000    0.000000    0.000000
    13        -0.280680245451324    1.972e-06    0.081558    0.000000    0.000000    0.000000
    14        -0.280680267922465    1.122e-06    0.081558    0.000000    0.000000    0.000000
    15        -0.280680241841488    6.389e-07    0.081559    0.000000    0.000000    0.000000
    16        -0.280680222039220    2.034e-07    0.081559    0.000000    0.000000    0.000000
    17        -0.280680218447892    9.660e-08    0.081559    0.000000    0.000000    0.000000

    Iterations converged.

    Largest TIA Amplitudes:
              3  21        -0.0768020891
              4  30        -0.0768020685
              3  27         0.0252213380
              4  36         0.0252213363
              3  23        -0.0195077682
              4  32        -0.0195077656
              3  24        -0.0189410598
              4  33        -0.0189410573
              0   7         0.0080453441
              1   7        -0.0080131807

    Largest Tia Amplitudes:
              2  22         0.1160624625
              3  31         0.1160624479
              1   0        -0.1003777019
              2  23         0.0462997782
              3  32         0.0462997778
              2  26         0.0237713817
              3  35         0.0237713793
              3  34         0.0182620666
              2  25         0.0182620662
              1   1         0.0179245913

    Largest TIJAB Amplitudes:
      4   3  30  21        -0.0525086359
      3   2  21   7        -0.0238075484
      4   2  30   7        -0.0238075481
      4   3  33  21        -0.0124997882
      4   3  30  24        -0.0124997878
      3   2  21   5         0.0121873200
      4   2  30   5         0.0121873198
      4   3  32  21        -0.0098005527
      4   3  30  23        -0.0098005524
      3   2  21   3         0.0092508171

    Largest Tijab Amplitudes:
      3   2  31  22        -0.0241232170
      2   1  22   0         0.0149117541
      3   1  31   0         0.0149117527
      2   1  22   8        -0.0117541204
      3   1  31   8        -0.0117541196
      3   2  19   9        -0.0102110081
      3   2  37  28        -0.0090242692
      3   2  37  22         0.0085299327
      3   2  31  28         0.0085299319
      3   2  21  16        -0.0085146498

    Largest TIjAb Amplitudes:
      3   2  21  22        -0.0896932255
      4   3  30  31        -0.0896932092
      4   2  30  22        -0.0548878589
      3   3  21  31        -0.0548878538
      1   2  21   0         0.0480918275
      1   3  30   0         0.0480918177
      3   1  21   0         0.0457488520
      4   1  30   0         0.0457488500
      2   2  21   0         0.0370383753
      2   3  30   0         0.0370383662

    SCF energy       (wfn)                    = -112.273735690016309
    Reference energy (file100)                = -112.273735690016366

    Opposite-spin MP2 correlation energy      =   -0.184051901050687
    Same-spin MP2 correlation energy          =   -0.075885514333854
    Singles MP2 correlation energy            =   -0.000000000000000
    MP2 correlation energy                    =   -0.259937415384541
      * MP2 total energy                      = -112.533673105400908

    Opposite-spin CCSD correlation energy     =   -0.219275429448852
    Same-spin CCSD correlation energy         =   -0.061404788999040
    Singles CCSD correlation energy           =   -0.000000000000000
    CCSD correlation energy                   =   -0.280680218447892
      * CCSD total energy                     = -112.554415908464264

            **************************
            *                        *
            *        CCTRIPLES       *
            *                        *
            **************************

      * CCSD(T) total energy                     = -112.566289847134129
*** Psi4 exiting successfully. Buy a developer a beer!
