                               Psi4 1.4a3.dev88

  ==> Input File <==

--------------------------------------------------------------------------
# Any line starting with the # character is a comment line
memory 250000 mb
molecule molecule{
0 1
N          0.0000000000        0.0000000000       -0.6018924656
C          0.0000000000        0.0000000000        0.5651392093
H          0.0000000000        0.0000000000        1.6297003342
}

set {
  reference rhf
  basis aug-cc-pv(q+d)z
  scf_type OUT_OF_CORE
  freeze_core true
}

energy('ccsd(t)')
--------------------------------------------------------------------------

    Molecular point group: c2v

    Geometry (in Angstrom), charge = 0, multiplicity = 1:

       Center              X                  Y                   Z               Mass
    ------------   -----------------  -----------------  -----------------  -----------------
         N            0.000000000000     0.000000000000    -0.601736179241    14.003074004430
         C            0.000000000000     0.000000000000     0.565295495659    12.000000000000
         H            0.000000000000     0.000000000000     1.629856620559     1.007825032230

  Charge       = 0
  Multiplicity = 1
  Basis Set: AUG-CC-PV(Q+D)Z
    Blend: AUG-CC-PV(Q+D)Z

    Orbital Energies [Eh]
    ---------------------

    Doubly Occupied:

       1A1   -15.603441     2A1   -11.296223     3A1    -1.230088
       4A1    -0.815706     5A1    -0.583030     1B1    -0.492871
       1B2    -0.492871

  @RHF Final Energy:   -92.91206299870883

   => Energetics <=

    Nuclear Repulsion Energy =             23.6868391635177780
    One-Electron Energy =                -172.1693474933663595
    Two-Electron Energy =                  55.5704453311397373
    Total Energy =                        -92.9120629987088336

  Dipole Moment: [D]
     X:     0.0000      Y:     0.0000      Z:     3.2996     Total:     3.2996

      * MP2 total energy                      =  -93.284739010905739
      * CCSD total energy                     =  -93.283195504003601
      * CCSD(T) total energy                  =  -93.303230315639510
*** Psi4 exiting successfully. Buy a developer a beer!
