                               Psi4 1.4a3.dev88

  ==> Input File <==

--------------------------------------------------------------------------
# Any line starting with the # character is a comment line
memory 250000 mb
molecule molecule{
0 1
N          0.0000000000        0.0000000000       -0.6018924656
C          0.0000000000        0.0000000000        0.5651392093
H          0.0000000000        0.0000000000        1.6297003342
}

set {
  reference rhf
  basis aug-cc-pV(d+d)Z
  scf_type OUT_OF_CORE
  freeze_core true
}

energy('ccsd(t)')
--------------------------------------------------------------------------

    Molecular point group: c2v

    Geometry (in Angstrom), charge = 0, multiplicity = 1:

       Center              X                  Y                   Z               Mass
    ------------   -----------------  -----------------  -----------------  -----------------
         N            0.000000000000     0.000000000000    -0.601736179241    14.003074004430
         C            0.000000000000     0.000000000000     0.565295495659    12.000000000000
         H            0.000000000000     0.000000000000     1.629856620559     1.007825032230

  Charge       = 0
  Multiplicity = 1
  Basis Set: AUG-CC-PV(D+D)Z
    Blend: AUG-CC-PV(D+D)Z

    Orbital Energies [Eh]
    ---------------------

    Doubly Occupied:

       1A1   -15.616206     2A1   -11.308058     3A1    -1.235156
       4A1    -0.815688     5A1    -0.582923     1B1    -0.492793
       1B2    -0.492793

  @RHF Final Energy:   -92.88564916984681

   => Energetics <=

    Nuclear Repulsion Energy =             23.6868391635177780
    One-Electron Energy =                -172.0577393449578096
    Two-Electron Energy =                  55.4852510115932063
    Total Energy =                        -92.8856491698468147

  Dipole Moment: [D]
     X:     0.0000      Y:     0.0000      Z:     3.3035     Total:     3.3035

      * MP2 total energy                      =  -93.183055290386307
      * CCSD total energy                     =  -93.190610538997717
      * CCSD(T) total energy                  =  -93.204519998968749
*** Psi4 exiting successfully. Buy a developer a beer!
