                               Psi4 1.4a3.dev88

  ==> Input File <==

--------------------------------------------------------------------------
# Any line starting with the # character is a comment line
memory 250000 mb
molecule molecule{
0 1
N          0.0000000000        0.0000000000       -0.6018924656
C          0.0000000000        0.0000000000        0.5651392093
H          0.0000000000        0.0000000000        1.6297003342
}

set {
  reference rhf
  basis aug-cc-pV(6+d)Z
  scf_type OUT_OF_CORE
  freeze_core true
}

energy('ccsd(t)')
--------------------------------------------------------------------------

    Molecular point group: c2v

    Geometry (in Angstrom), charge = 0, multiplicity = 1:

       Center              X                  Y                   Z               Mass
    ------------   -----------------  -----------------  -----------------  -----------------
         N            0.000000000000     0.000000000000    -0.601736179241    14.003074004430
         C            0.000000000000     0.000000000000     0.565295495659    12.000000000000
         H            0.000000000000     0.000000000000     1.629856620559     1.007825032230

  Charge       = 0
  Multiplicity = 1
  Basis Set: AUG-CC-PV(6+D)Z
    Blend: AUG-CC-PV(6+D)Z

    Orbital Energies [Eh]
    ---------------------

    Doubly Occupied:

       1A1   -15.602964     2A1   -11.295966     3A1    -1.229919
       4A1    -0.815694     5A1    -0.583059     1B1    -0.492879
       1B2    -0.492879

  @RHF Final Energy:   -92.91333700693585

   => Energetics <=

    Nuclear Repulsion Energy =             23.6868391635177780
    One-Electron Energy =                -172.1736309793681698
    Two-Electron Energy =                  55.5734548089145406
    Total Energy =                        -92.9133370069358477

  Dipole Moment: [D]
     X:     0.0000      Y:     0.0000      Z:     3.2996     Total:     3.2996

      * MP2 total energy                      =  -93.297223203478154
      * CCSD total energy                     =  -93.291752808588896
      * CCSD(T) total energy                  =  -93.312348659389087
*** Psi4 exiting successfully. Buy a developer a beer!
