                               Psi4 1.2a1.dev939

  ==> Input File <==

--------------------------------------------------------------------------
# Any line starting with the # character is a comment line
memory 250000 mb
molecule molecule{
1 1
P          0.0000000000        0.0000000000        0.0598478687
H          0.0000000000        1.0213497563       -0.9195554905
H          0.0000000000       -1.0213497563       -0.9195554905
}

set {
  reference rhf
  basis aug-cc-pv(6+d)z
  scf_type OUT_OF_CORE
  freeze_core true
}

energy('ccsd')
--------------------------------------------------------------------------

    Molecular point group: c2v

    Geometry (in Angstrom), charge = 1, multiplicity = 1:

       Center              X                  Y                   Z               Mass
    ------------   -----------------  -----------------  -----------------  -----------------
           P         -0.000000000000     0.000000000000     0.059841456470    30.973761629000
           H         -0.000000000000     1.021349756300    -0.919561902730     1.007825032070
           H          0.000000000000    -1.021349756300    -0.919561902730     1.007825032070

  Charge       = 1
  Multiplicity = 1
  Basis Set: AUG-CC-PV(6+D)Z
    Blend: AUG-CC-PV(6+D)Z

    Orbital Energies (a.u.)
    -----------------------

    Doubly Occupied:

       1A1   -80.334674     2A1    -7.871061     1B1    -5.762791
       1B2    -5.760992     3A1    -5.760499     4A1    -1.137456
       2B2    -0.829997     5A1    -0.729545

  @RHF Final Energy:  -341.55065051715962

   => Energetics <=

    Nuclear Repulsion Energy =             11.4779107699690428
    One-Electron Energy =                -489.6830930328554814
    Two-Electron Energy =                 136.6545317457267856
    Total Energy =                       -341.5506505171596245
      * MP2 total energy                      = -341.686255861352436
      * CCSD total energy                     = -341.710690542151781
*** Psi4 exiting successfully. Buy a developer a beer!
