                               Psi4 1.2a1.dev939

  ==> Input File <==

--------------------------------------------------------------------------
# Any line starting with the # character is a comment line

memory 32000 mb

molecule molecule {
1 1
P          0.0000000000        0.0000000000        0.0598478687
H          0.0000000000        1.0213497563       -0.9195554905
H          0.0000000000       -1.0213497563       -0.9195554905
}

set {
  reference rhf
  basis aug-cc-pv(T+d)z
  scf_type OUT_OF_CORE
  freeze_core true
}

energy('ccsd')
--------------------------------------------------------------------------

    Molecular point group: c2v

    Geometry (in Angstrom), charge = 1, multiplicity = 1:

       Center              X                  Y                   Z               Mass
    ------------   -----------------  -----------------  -----------------  -----------------
           P         -0.000000000000     0.000000000000     0.059841456470    30.973761629000
           H         -0.000000000000     1.021349756300    -0.919561902730     1.007825032070
           H          0.000000000000    -1.021349756300    -0.919561902730     1.007825032070

  Charge       = 1
  Multiplicity = 1
  Basis Set: AUG-CC-PV(T+D)Z
    Blend: AUG-CC-PV(T+D)Z

    Orbital Energies (a.u.)
    -----------------------

    Doubly Occupied:

       1A1   -80.336537     2A1    -7.871875     1B1    -5.763824
       1B2    -5.761422     3A1    -5.760712     4A1    -1.137708
       2B2    -0.829843     5A1    -0.729339

  @RHF Final Energy:  -341.54676560022511

   => Energetics <=

    Nuclear Repulsion Energy =             11.4779107699690428
    One-Electron Energy =                -489.6668339001392951
    Two-Electron Energy =                 136.6421575299451092
    Total Energy =                       -341.5467656002251147
      * MP2 total energy                      = -341.669593098521261
      * CCSD total energy                     = -341.698542650628042
*** Psi4 exiting successfully. Buy a developer a beer!
