                               Psi4 1.2a1.dev938

  ==> Input File <==

--------------------------------------------------------------------------
# Any line starting with the # character is a comment line
memory 250000 mb
molecule molecule{
0 2
C          0.0000000006        0.0000000000        0.0000000109
H          0.9761315734        0.0000000000        0.4507044190
H         -0.8783873329        0.0000000000        0.6200024054
H         -0.0977442476        0.0000000000       -1.0707069548
}

set {
  reference uhf
  basis aug-cc-pv(q+d)z
  scf_type OUT_OF_CORE
  freeze_core true
}

energy('ccsd')
--------------------------------------------------------------------------

    Molecular point group: cs

    Geometry (in Angstrom), charge = 0, multiplicity = 2:

       Center              X                  Y                   Z               Mass
    ------------   -----------------  -----------------  -----------------  -----------------
           C         -0.000000000597     0.000000010941     0.000000000000    12.000000000000
           H         -0.976131573397     0.450704419041     0.000000000000     1.007825032070
           H          0.878387332903     0.620002405441     0.000000000000     1.007825032070
           H          0.097744247603    -1.070706954759     0.000000000000     1.007825032070

  Charge       = 0
  Multiplicity = 2
  Basis Set: AUG-CC-PV(Q+D)Z
    Blend: AUG-CC-PV(Q+D)Z

    Orbital Energies (a.u.)
    -----------------------

    Alpha Occupied:

       1Ap   -11.232702     2Ap    -0.949040     3Ap    -0.582236
       4Ap    -0.582236     1App   -0.384438

    Alpha Virtual:

       5Ap     0.027622     6Ap     0.043328     7Ap     0.043328
       2App    0.079032     8Ap     0.117871     9Ap     0.117871
      10Ap     0.125033    11Ap     0.183644    12Ap     0.183644
      13Ap     0.201230     3App    0.216707     4App    0.216707
       5App    0.262100    14Ap     0.275448    15Ap     0.275448
      16Ap     0.277586    17Ap     0.280584     6App    0.301401
       7App    0.301401    18Ap     0.331672    19Ap     0.375363
      20Ap     0.375363    21Ap     0.384814    22Ap     0.384814
      23Ap     0.475980    24Ap     0.475980     8App    0.491580
      25Ap     0.533291     9App    0.585936    10App    0.585936
      26Ap     0.674697    27Ap     0.677604    28Ap     0.705389
      29Ap     0.705389    30Ap     0.713463    11App    0.735228
      12App    0.748794    13App    0.748794    31Ap     0.756613
      32Ap     0.756613    33Ap     0.772650    34Ap     0.790615
      35Ap     0.790615    14App    0.797274    15App    0.891293
      36Ap     0.901681    37Ap     0.901681    16App    0.923497
      17App    0.923497    38Ap     0.998015    39Ap     0.998015
      40Ap     1.090170    41Ap     1.110816    42Ap     1.110816
      18App    1.113295    19App    1.113295    43Ap     1.129295
      20App    1.216705    44Ap     1.317391    21App    1.417000
      22App    1.417000    45Ap     1.432807    46Ap     1.490063
      47Ap     1.500019    48Ap     1.500019    49Ap     1.580778
      50Ap     1.580778    51Ap     1.718388    52Ap     1.718388
      23App    1.739534    53Ap     1.754387    24App    1.764893
      25App    1.773934    26App    1.773934    54Ap     1.815938
      55Ap     1.815938    27App    1.847586    56Ap     1.946652
      57Ap     1.967973    58Ap     1.997771    59Ap     1.997771
      28App    2.043460    29App    2.043460    60Ap     2.070343
      61Ap     2.070343    62Ap     2.073448    30App    2.096385
      31App    2.096385    63Ap     2.155866    32App    2.156485
      64Ap     2.224502    65Ap     2.224503    33App    2.262957
      34App    2.262957    66Ap     2.309316    67Ap     2.322523
      68Ap     2.322523    35App    2.450745    36App    2.450745
      37App    2.526188    38App    2.574963    69Ap     2.623780
      70Ap     2.623780    71Ap     2.660559    39App    2.682930
      40App    2.806773    41App    2.806773    72Ap     2.808081
      73Ap     2.808081    74Ap     2.897963    75Ap     2.962448
      76Ap     2.962448    77Ap     3.045009    78Ap     3.251255
      79Ap     3.251255    80Ap     3.310427    42App    3.486674
      43App    3.486674    81Ap     3.590599    82Ap     3.590599
      83Ap     3.627363    44App    3.759466    45App    3.776174
      46App    3.776174    84Ap     3.883877    85Ap     3.883877
      86Ap     3.964609    47App    4.091214    87Ap     4.182947
      88Ap     4.202135    89Ap     4.202135    48App    4.294256
      49App    4.294256    50App    4.444416    90Ap     4.465817
      91Ap     4.465817    92Ap     4.740565    93Ap     4.801941
      94Ap     4.801941    95Ap     4.928986    51App    5.856751
      96Ap     5.970690    52App    5.988621    97Ap     6.018436
      98Ap     6.018436    53App    6.084060    54App    6.084060
      55App    6.271404    56App    6.314630    57App    6.314630
      99Ap     6.405518   100Ap     6.405518   101Ap     6.477383
      58App    6.714105    59App    6.758121    60App    6.758121
     102Ap     6.780277   103Ap     6.834563   104Ap     6.892436
     105Ap     6.892436   106Ap     6.923645   107Ap     6.923645
     108Ap     7.123001   109Ap     7.248952   110Ap     7.248952
      61App    7.279302   111Ap     7.395675   112Ap     7.395675
      62App    7.597774    63App    7.597774    64App    7.740419
      65App    7.740419   113Ap     8.002228   114Ap     8.002229
     115Ap     8.117926    66App    8.357406    67App    8.357406
     116Ap     8.489082   117Ap     8.489082   118Ap     8.511327
      68App    8.604708   119Ap     8.622760   120Ap     8.622760
     121Ap     8.754066    69App    8.893513    70App    9.079707
      71App    9.079707   122Ap     9.197837   123Ap     9.266180
     124Ap     9.266180    72App    9.273162    73App    9.273162
      74App    9.661635   125Ap     9.712482   126Ap     9.712482
     127Ap     9.787769   128Ap     9.886899    75App    9.893323
     129Ap    10.202065   130Ap    10.202065    76App   10.360138
      77App   10.360138   131Ap    10.532970    78App   10.541577
     132Ap    10.701405   133Ap    10.701405   134Ap    10.939891
     135Ap    11.819027   136Ap    11.819028   137Ap    12.416446
     138Ap    13.170596   139Ap    13.170597   140Ap    26.931947

    Beta Occupied:

       1Ap   -11.209836     2Ap    -0.858892     3Ap    -0.568207
       4Ap    -0.568207

    Beta Virtual:

       5Ap     0.028811     6Ap     0.043525     7Ap     0.043525
       1App    0.056202     8Ap     0.118412     9Ap     0.118412
      10Ap     0.129510     2App    0.143762    11Ap     0.184903
      12Ap     0.184903    13Ap     0.213132     3App    0.223401
       4App    0.223401    14Ap     0.275607    15Ap     0.275607
      16Ap     0.277478    17Ap     0.282001     5App    0.297083
       6App    0.302729     7App    0.302729    18Ap     0.343503
      19Ap     0.376156    20Ap     0.376156    21Ap     0.389667
      22Ap     0.389667    23Ap     0.478081    24Ap     0.478081
       8App    0.560772    25Ap     0.568439     9App    0.604641
      10App    0.604641    26Ap     0.673659    27Ap     0.687065
      28Ap     0.708658    29Ap     0.708658    30Ap     0.721501
      11App    0.740746    12App    0.753091    13App    0.753091
      31Ap     0.761986    32Ap     0.761986    33Ap     0.783769
      34Ap     0.795100    35Ap     0.795100    14App    0.798540
      15App    0.898579    36Ap     0.902626    37Ap     0.902626
      16App    0.949945    17App    0.949945    38Ap     1.002645
      39Ap     1.002645    40Ap     1.090979    41Ap     1.117676
      42Ap     1.117676    18App    1.120686    19App    1.120686
      43Ap     1.130164    20App    1.265181    44Ap     1.349535
      21App    1.422296    22App    1.422296    45Ap     1.430816
      46Ap     1.504850    47Ap     1.504850    48Ap     1.512381
      49Ap     1.579977    50Ap     1.579977    51Ap     1.723469
      52Ap     1.723469    23App    1.748268    53Ap     1.754099
      24App    1.775229    25App    1.775229    26App    1.785024
      54Ap     1.816413    55Ap     1.816413    27App    1.848769
      56Ap     1.948302    57Ap     1.968349    58Ap     2.003795
      59Ap     2.003795    28App    2.047061    29App    2.047061
      60Ap     2.075813    61Ap     2.077220    62Ap     2.077220
      30App    2.134507    31App    2.134507    63Ap     2.163331
      32App    2.191901    64Ap     2.228078    65Ap     2.228078
      33App    2.278394    34App    2.278394    66Ap     2.323272
      67Ap     2.334289    68Ap     2.334289    35App    2.462783
      36App    2.462783    37App    2.546946    38App    2.582023
      69Ap     2.632932    70Ap     2.632932    39App    2.698060
      71Ap     2.701564    72Ap     2.815497    73Ap     2.815497
      40App    2.818295    41App    2.818295    74Ap     2.898009
      75Ap     2.966607    76Ap     2.966607    77Ap     3.057174
      78Ap     3.252414    79Ap     3.252414    80Ap     3.320153
      42App    3.490315    43App    3.490315    81Ap     3.600634
      82Ap     3.600634    83Ap     3.627571    44App    3.768669
      45App    3.787305    46App    3.787305    84Ap     3.887404
      85Ap     3.887404    86Ap     3.972517    47App    4.092934
      87Ap     4.186170    88Ap     4.206543    89Ap     4.206543
      48App    4.318157    49App    4.318157    50App    4.454253
      90Ap     4.468578    91Ap     4.468578    92Ap     4.762401
      93Ap     4.804656    94Ap     4.804656    95Ap     4.932389
      51App    5.883313    96Ap     5.995196    52App    6.000551
      97Ap     6.032307    98Ap     6.032307    53App    6.104630
      54App    6.104630    55App    6.316354    56App    6.335827
      57App    6.335827    99Ap     6.429189   100Ap     6.429189
     101Ap     6.481204    58App    6.729771    59App    6.760766
      60App    6.760766   102Ap     6.780788   103Ap     6.860427
     104Ap     6.895014   105Ap     6.895014   106Ap     6.936503
     107Ap     6.936503   108Ap     7.129631   109Ap     7.254577
     110Ap     7.254577    61App    7.287028   111Ap     7.399143
     112Ap     7.399143    62App    7.620867    63App    7.620867
      64App    7.752642    65App    7.752642   113Ap     8.006703
     114Ap     8.006703   115Ap     8.121647    66App    8.359322
      67App    8.359322   116Ap     8.489264   117Ap     8.489264
     118Ap     8.513183    68App    8.607412   119Ap     8.625878
     120Ap     8.625879   121Ap     8.753065    69App    8.897621
      70App    9.079393    71App    9.079393   122Ap     9.201256
     123Ap     9.267987   124Ap     9.267987    72App    9.274953
      73App    9.274953    74App    9.662018   125Ap     9.711563
     126Ap     9.711563   127Ap     9.790076   128Ap     9.884737
      75App    9.895869   129Ap    10.199984   130Ap    10.199984
      76App   10.368102    77App   10.368102   131Ap    10.533571
      78App   10.553058   132Ap    10.703434   133Ap    10.703434
     134Ap    10.942945   135Ap    11.820064   136Ap    11.820064
     137Ap    12.418960   138Ap    13.171969   139Ap    13.171970
     140Ap    26.945642

    Final Occupation by Irrep:
             Ap   App
    DOCC [     4,    0 ]
    SOCC [     0,    1 ]

  Energy converged.

  @UHF Final Energy:   -39.58048766903064

   => Energetics <=

    Nuclear Repulsion Energy =              9.7118189955315088
    One-Electron Energy =                 -71.6488209480718865
    Two-Electron Energy =                  22.3565142835097461
    PCM Polarization Energy =               0.0000000000000000
    Total Energy =                        -39.5804876690306315

    Alert: EFP and PCM quantities not currently incorporated into SCF psivars.
  UHF NO Occupations:
  HONO-2 :    3 Ap 1.9991139
  HONO-1 :    4 Ap 1.9959308
  HONO-0 :    1App 1.0000000
  LUNO+0 :    5 Ap 0.0040692
  LUNO+1 :    6 Ap 0.0008861
  LUNO+2 :    7 Ap 0.0008861
  LUNO+3 :    8 Ap 0.0000014

Properties will be evaluated at   0.000000,   0.000000,   0.000000 Bohr

Properties computed using the SCF density matrix

  Nuclear Dipole Moment: (a.u.)
     X:     0.0000      Y:    -0.0000      Z:     0.0000

  Electronic Dipole Moment: (a.u.)
     X:    -0.0000      Y:     0.0000      Z:     0.0000

  Dipole Moment: (a.u.)
     X:     0.0000      Y:    -0.0000      Z:     0.0000     Total:     0.0000

  Dipole Moment: (Debye)
     X:     0.0000      Y:    -0.0000      Z:     0.0000     Total:     0.0000

*** tstop() called on cqc05 at Thu Aug 20 20:25:38 2020
Module time:
	user time   =      80.23 seconds =       1.34 minutes
	system time =       5.73 seconds =       0.10 minutes
	total time  =         85 seconds =       1.42 minutes
Total time:
	user time   =      80.23 seconds =       1.34 minutes
	system time =       5.73 seconds =       0.10 minutes
	total time  =         85 seconds =       1.42 minutes

*** tstart() called on cqc05
*** at Thu Aug 20 20:25:38 2020

	Wfn Parameters:
	--------------------
	Wavefunction         = CCSD
	Number of irreps     = 2
	Number of MOs        = 218
	Number of active MOs = 217
	AO-Basis             = NONE
	Semicanonical        = false
	Reference            = UHF
	Print Level          = 1

	IRREP	# MOs	# FZDC	# DOCC	# SOCC	# VIRT	# FZVR
	-----	-----	------	------	------	------	------
	 Ap	   140	    1	    3	    0	    136	    0
	 App	   78	    0	    0	    1	    77	    0
	Transforming integrals...
	IWL integrals will be deleted.
	(OO|OO)...
	Presorting SO-basis two-electron integrals.
	Sorting File: SO Ints (nn|nn) nbuckets = 1
	Transforming the one-electron integrals and constructing Fock matrices
	Starting AA/AB first half-transformation.
	Sorting AA/AB half-transformed integrals.
	Starting BB first half-transformation.
	Sorting BB half-transformed integrals.
	First half integral transformation complete.
	Starting AA second half-transformation.
	Starting AB second half-transformation.
	Starting BB second half-transformation.
	Two-electron integral transformation complete.
	(OO|OV)...
	Starting AA second half-transformation.
	Starting AB second half-transformation.
	Starting BB second half-transformation.
	Two-electron integral transformation complete.
	(OO|VV)...
	Starting AA second half-transformation.
	Starting AB second half-transformation.
	Starting BB second half-transformation.
	Two-electron integral transformation complete.
	(OV|OO)...
	Starting AA/AB first half-transformation.
	Sorting AA/AB half-transformed integrals.
	Starting BB first half-transformation.
	Sorting BB half-transformed integrals.
	First half integral transformation complete.
	Starting AA second half-transformation.
	Starting AB second half-transformation.
	Starting BB second half-transformation.
	Two-electron integral transformation complete.
	(OV|OV)...
	Starting AA second half-transformation.
	Starting AB second half-transformation.
	Starting BB second half-transformation.
	Two-electron integral transformation complete.
	(OV|VV)...
	Starting AA second half-transformation.
	Starting AB second half-transformation.
	Starting BB second half-transformation.
	Two-electron integral transformation complete.
	(VV|OO)...
	Starting AA/AB first half-transformation.
	Sorting AA/AB half-transformed integrals.
	Starting BB first half-transformation.
	Sorting BB half-transformed integrals.
	First half integral transformation complete.
	Starting AA second half-transformation.
	Starting AB second half-transformation.
	Starting BB second half-transformation.
	Two-electron integral transformation complete.
	(VV|OV)...
	Starting AA second half-transformation.
	Starting AB second half-transformation.
	Starting BB second half-transformation.
	Two-electron integral transformation complete.
	(VV|VV)...
	Starting AA second half-transformation.
	Starting AB second half-transformation.
	Starting BB second half-transformation.
	Two-electron integral transformation complete.
	Frozen core energy     =    -35.31242505869068

	Size of irrep 0 of <AB|CD> integrals:    146.555 (MW) /   1172.442 (MB)
	Size of irrep 1 of <AB|CD> integrals:    109.663 (MW) /    877.302 (MB)
	Total:                                   256.218 (MW) /   2049.744 (MB)

	Size of irrep 0 of <ab|cd> integrals:    148.425 (MW) /   1187.404 (MB)
	Size of irrep 1 of <ab|cd> integrals:    112.530 (MW) /    900.237 (MB)
	Total:                                   260.955 (MW) /   2087.641 (MB)

	Size of irrep 0 of <Ab|Cd> integrals:    600.348 (MW) /   4802.784 (MB)
	Size of irrep 1 of <Ab|Cd> integrals:    444.366 (MW) /   3554.931 (MB)
	Total:                                  1044.714 (MW) /   8357.715 (MB)

	Size of irrep 0 of <IA|BC> integrals:     11.846 (MW) /     94.769 (MB)
	Size of irrep 1 of <IA|BC> integrals:      7.686 (MW) /     61.492 (MB)
	Total:                                    19.533 (MW) /    156.261 (MB)

	Size of irrep 0 of <ia|bc> integrals:     10.029 (MW) /     80.229 (MB)
	Size of irrep 1 of <ia|bc> integrals:      4.965 (MW) /     39.716 (MB)
	Total:                                    14.993 (MW) /    119.945 (MB)

	Size of irrep 0 of <Ia|Bc> integrals:     11.908 (MW) /     95.264 (MB)
	Size of irrep 1 of <Ia|Bc> integrals:      7.800 (MW) /     62.397 (MB)
	Total:                                    19.708 (MW) /    157.661 (MB)

	Size of irrep 0 of <iA|bC> integrals:      9.997 (MW) /     79.975 (MB)
	Size of irrep 1 of <iA|bC> integrals:      4.869 (MW) /     38.956 (MB)
	Total:                                    14.866 (MW) /    118.930 (MB)

	Size of irrep 0 of tIjAb amplitudes:       0.221 (MW) /      1.764 (MB)
	Size of irrep 1 of tIjAb amplitudes:       0.063 (MW) /      0.506 (MB)
	Total:                                     0.284 (MW) /      2.270 (MB)

	Nuclear Rep. energy          =      9.71181899553151
	SCF energy                   =    -39.58048766903064
	One-electron energy          =    -23.46650812993920
	Two-electron (AA) energy     =      2.47083795510201
	Two-electron (BB) energy     =      1.12947916145096
	Two-electron (AB) energy     =      5.88630940751455
	Two-electron energy          =      9.48662652406752
	Reference energy             =    -39.58048766903084

*** tstop() called on cqc05 at Thu Aug 20 20:30:40 2020
Module time:
	user time   =     121.88 seconds =       2.03 minutes
	system time =      56.59 seconds =       0.94 minutes
	total time  =        302 seconds =       5.03 minutes
Total time:
	user time   =     202.11 seconds =       3.37 minutes
	system time =      62.32 seconds =       1.04 minutes
	total time  =        387 seconds =       6.45 minutes

*** tstart() called on cqc05
*** at Thu Aug 20 20:30:40 2020

            **************************
            *                        *
            *        CCENERGY        *
            *                        *
            **************************

    Nuclear Rep. energy (wfn)     =    9.711818995531509
    SCF energy          (wfn)     =  -39.580487669030639
    Reference energy    (file100) =  -39.580487669030845

    Input parameters:
    -----------------
    Wave function   =     CCSD
    Reference wfn   =     UHF
    Brueckner       =     No
    Memory (Mbytes) =     250000.0
    Maxiter         =     50
    R_Convergence   =     1.0e-07
    E_Convergence   =     1.0e-06
    Restart         =     Yes
    DIIS            =     Yes
    AO Basis        =     NONE
    ABCD            =     NEW
    Cache Level     =     2
    Cache Type      =     LRU
    Print Level     =     1
    Num. of threads =     4
    # Amps to Print =     10
    Print MP2 Amps? =     No
    Analyze T2 Amps =     No
    Print Pair Ener =     No
    Local CC        =     No
    SCS-MP2         =     False
    SCSN-MP2        =     False
    SCS-CCSD        =     False

MP2 correlation energy -0.1692976060454855
                Solving CC Amplitude Equations
                ------------------------------
  Iter             Energy              RMS        T1Diag      D1Diag    New D1Diag    D2Diag
  ----     ---------------------    ---------   ----------  ----------  ----------   --------
     0        -0.169297606045486    0.000e+00    0.000000    0.000000    0.000000    0.000000

      * MP2 total energy                      =  -39.749785275076327
      * CCSD total energy                     =  -39.767967947849279
*** Psi4 exiting successfully. Buy a developer a beer!
