                               Psi4 1.2a1.dev938

  ==> Input File <==

--------------------------------------------------------------------------
# Any line starting with the # character is a comment line
memory 250000 mb
molecule molecule{
0 2
C          0.0000000006        0.0000000000        0.0000000109
H          0.9761315734        0.0000000000        0.4507044190
H         -0.8783873329        0.0000000000        0.6200024054
H         -0.0977442476        0.0000000000       -1.0707069548
}

set {
  reference uhf
  basis aug-cc-pv(t+d)z
  scf_type OUT_OF_CORE
  freeze_core true
}

energy('ccsd')
--------------------------------------------------------------------------

    Molecular point group: cs

    Geometry (in Angstrom), charge = 0, multiplicity = 2:

       Center              X                  Y                   Z               Mass
    ------------   -----------------  -----------------  -----------------  -----------------
           C         -0.000000000597     0.000000010941     0.000000000000    12.000000000000
           H         -0.976131573397     0.450704419041     0.000000000000     1.007825032070
           H          0.878387332903     0.620002405441     0.000000000000     1.007825032070
           H          0.097744247603    -1.070706954759     0.000000000000     1.007825032070

  Charge       = 0
  Multiplicity = 2
  Basis Set: AUG-CC-PV(T+D)Z
    Blend: AUG-CC-PV(T+D)Z

    Orbital Energies (a.u.)
    -----------------------

    Alpha Occupied:

       1Ap   -11.233721     2Ap    -0.949189     3Ap    -0.582156
       4Ap    -0.582156     1App   -0.384154

    Alpha Virtual:

       5Ap     0.030653     6Ap     0.048041     7Ap     0.048041
       2App    0.093476     8Ap     0.131032     9Ap     0.131032
      10Ap     0.141376    11Ap     0.220129    12Ap     0.220129
      13Ap     0.236249     3App    0.268783     4App    0.268783
       5App    0.329099    14Ap     0.336934    15Ap     0.336934
      16Ap     0.342973    17Ap     0.369646    18Ap     0.396838
       6App    0.399966     7App    0.399966    19Ap     0.415583
      20Ap     0.415583    21Ap     0.462011    22Ap     0.462011
       8App    0.617514    23Ap     0.641512    24Ap     0.731212
      25Ap     0.731212     9App    0.838467    10App    0.838467
      26Ap     0.839655    27Ap     0.839655    28Ap     0.857251
      29Ap     0.892817    30Ap     0.954341    31Ap     0.998362
      32Ap     0.998362    11App    0.999814    12App    1.007395
      13App    1.007395    33Ap     1.068885    34Ap     1.068885
      14App    1.085740    35Ap     1.111683    36Ap     1.131700
      37Ap     1.131700    15App    1.147094    16App    1.147094
      17App    1.307799    38Ap     1.424382    39Ap     1.424382
      40Ap     1.575486    41Ap     1.605788    42Ap     1.605788
      43Ap     1.606229    18App    1.616779    19App    1.635433
      20App    1.635433    44Ap     1.726809    45Ap     1.940271
      46Ap     1.940271    47Ap     2.046889    21App    2.061850
      22App    2.061850    48Ap     2.179034    49Ap     2.179034
      50Ap     2.245661    23App    2.938554    51Ap     2.965032
      52Ap     2.965032    53Ap     3.191693    24App    3.223860
      25App    3.223860    26App    3.537634    54Ap     3.592348
      55Ap     3.592348    27App    3.596662    28App    3.596662
      56Ap     3.660939    57Ap     3.660939    58Ap     3.677882
      59Ap     3.697421    60Ap     3.901568    29App    3.909960
      61Ap     3.997784    62Ap     3.997784    63Ap     4.225923
      64Ap     4.225923    65Ap     4.373865    30App    4.377684
      31App    4.377684    32App    4.636116    33App    4.795676
      34App    4.795676    66Ap     4.856873    67Ap     4.856873
      68Ap     5.001200    35App    5.050391    69Ap     5.300788
      70Ap     5.300788    36App    5.378832    37App    5.378833
      71Ap     5.441224    72Ap     5.441224    73Ap     5.593484
      74Ap     6.380276    75Ap     6.466091    76Ap     6.466092
      77Ap     6.705708    78Ap    16.694541

    Beta Occupied:

       1Ap   -11.211027     2Ap    -0.858992     3Ap    -0.568030
       4Ap    -0.568030

    Beta Virtual:

       5Ap     0.032017     6Ap     0.048296     7Ap     0.048296
       1App    0.061603     8Ap     0.131665     9Ap     0.131665
      10Ap     0.146842     2App    0.164417    11Ap     0.221940
      12Ap     0.221940    13Ap     0.253358     3App    0.278730
       4App    0.278730    14Ap     0.337526    15Ap     0.337526
      16Ap     0.342729     5App    0.366221    17Ap     0.377781
       6App    0.406751     7App    0.406751    18Ap     0.409061
      19Ap     0.418374    20Ap     0.418374    21Ap     0.466792
      22Ap     0.466792    23Ap     0.673212     8App    0.696231
      24Ap     0.733451    25Ap     0.733451    26Ap     0.846886
      27Ap     0.846886    28Ap     0.855753     9App    0.859040
      10App    0.859040    29Ap     0.909831    30Ap     0.966761
      31Ap     1.007047    32Ap     1.007047    11App    1.008757
      12App    1.016973    13App    1.016973    33Ap     1.069457
      34Ap     1.069457    14App    1.088286    35Ap     1.124362
      36Ap     1.134499    37Ap     1.134499    15App    1.176131
      16App    1.176131    17App    1.323388    38Ap     1.434173
      39Ap     1.434173    40Ap     1.576089    41Ap     1.606772
      42Ap     1.614799    43Ap     1.614799    18App    1.647799
      19App    1.647799    20App    1.662124    44Ap     1.770579
      45Ap     1.945707    46Ap     1.945707    47Ap     2.046484
      21App    2.077121    22App    2.077121    48Ap     2.182460
      49Ap     2.182460    50Ap     2.266486    51Ap     2.975719
      52Ap     2.975719    23App    3.002894    53Ap     3.206209
      24App    3.267324    25App    3.267324    26App    3.572168
      54Ap     3.609993    55Ap     3.609993    27App    3.619860
      28App    3.619860    56Ap     3.672077    57Ap     3.672077
      58Ap     3.681132    59Ap     3.723990    29App    3.911995
      60Ap     3.921984    61Ap     4.001870    62Ap     4.001870
      63Ap     4.235137    64Ap     4.235137    65Ap     4.379758
      30App    4.388036    31App    4.388036    32App    4.640698
      33App    4.797495    34App    4.797495    66Ap     4.856092
      67Ap     4.856092    68Ap     4.997680    35App    5.060870
      69Ap     5.302230    70Ap     5.302230    36App    5.397062
      37App    5.397062    71Ap     5.444725    72Ap     5.444725
      73Ap     5.601497    74Ap     6.386610    75Ap     6.470078
      76Ap     6.470078    77Ap     6.709459    78Ap    16.711355

    Final Occupation by Irrep:
             Ap   App
    DOCC [     4,    0 ]
    SOCC [     0,    1 ]

  Energy converged.

  @UHF Final Energy:   -39.57805526738780

   => Energetics <=

    Nuclear Repulsion Energy =              9.7118189955315088
    One-Electron Energy =                 -71.6422939631026452
    Two-Electron Energy =                  22.3524197001833400
    PCM Polarization Energy =               0.0000000000000000
    Total Energy =                        -39.5780552673877963

    Alert: EFP and PCM quantities not currently incorporated into SCF psivars.
  UHF NO Occupations:
  HONO-2 :    3 Ap 1.9991165
  HONO-1 :    4 Ap 1.9959480
  HONO-0 :    1App 1.0000000
  LUNO+0 :    5 Ap 0.0040520
  LUNO+1 :    6 Ap 0.0008835
  LUNO+2 :    7 Ap 0.0008835
  LUNO+3 :    8 Ap 0.0000012

Properties will be evaluated at   0.000000,   0.000000,   0.000000 Bohr

Properties computed using the SCF density matrix

  Nuclear Dipole Moment: (a.u.)
     X:     0.0000      Y:    -0.0000      Z:     0.0000

  Electronic Dipole Moment: (a.u.)
     X:     0.0000      Y:     0.0000      Z:     0.0000

  Dipole Moment: (a.u.)
     X:     0.0000      Y:     0.0000      Z:     0.0000     Total:     0.0000

  Dipole Moment: (Debye)
     X:     0.0000      Y:     0.0000      Z:     0.0000     Total:     0.0000

*** tstop() called on cqc05 at Thu Aug 20 19:58:52 2020
Module time:
	user time   =       6.50 seconds =       0.11 minutes
	system time =       0.36 seconds =       0.01 minutes
	total time  =          6 seconds =       0.10 minutes
Total time:
	user time   =       6.50 seconds =       0.11 minutes
	system time =       0.36 seconds =       0.01 minutes
	total time  =          6 seconds =       0.10 minutes

*** tstart() called on cqc05
*** at Thu Aug 20 19:58:52 2020

	Wfn Parameters:
	--------------------
	Wavefunction         = CCSD
	Number of irreps     = 2
	Number of MOs        = 115
	Number of active MOs = 114
	AO-Basis             = NONE
	Semicanonical        = false
	Reference            = UHF
	Print Level          = 1

	IRREP	# MOs	# FZDC	# DOCC	# SOCC	# VIRT	# FZVR
	-----	-----	------	------	------	------	------
	 Ap	   78	    1	    3	    0	    74	    0
	 App	   37	    0	    0	    1	    36	    0
	Transforming integrals...
	IWL integrals will be deleted.
	(OO|OO)...
	Presorting SO-basis two-electron integrals.
	Sorting File: SO Ints (nn|nn) nbuckets = 1
	Transforming the one-electron integrals and constructing Fock matrices
	Starting AA/AB first half-transformation.
	Sorting AA/AB half-transformed integrals.
	Starting BB first half-transformation.
	Sorting BB half-transformed integrals.
	First half integral transformation complete.
	Starting AA second half-transformation.
	Starting AB second half-transformation.
	Starting BB second half-transformation.
	Two-electron integral transformation complete.
	(OO|OV)...
	Starting AA second half-transformation.
	Starting AB second half-transformation.
	Starting BB second half-transformation.
	Two-electron integral transformation complete.
	(OO|VV)...
	Starting AA second half-transformation.
	Starting AB second half-transformation.
	Starting BB second half-transformation.
	Two-electron integral transformation complete.
	(OV|OO)...
	Starting AA/AB first half-transformation.
	Sorting AA/AB half-transformed integrals.
	Starting BB first half-transformation.
	Sorting BB half-transformed integrals.
	First half integral transformation complete.
	Starting AA second half-transformation.
	Starting AB second half-transformation.
	Starting BB second half-transformation.
	Two-electron integral transformation complete.
	(OV|OV)...
	Starting AA second half-transformation.
	Starting AB second half-transformation.
	Starting BB second half-transformation.
	Two-electron integral transformation complete.
	(OV|VV)...
	Starting AA second half-transformation.
	Starting AB second half-transformation.
	Starting BB second half-transformation.
	Two-electron integral transformation complete.
	(VV|OO)...
	Starting AA/AB first half-transformation.
	Sorting AA/AB half-transformed integrals.
	Starting BB first half-transformation.
	Sorting BB half-transformed integrals.
	First half integral transformation complete.
	Starting AA second half-transformation.
	Starting AB second half-transformation.
	Starting BB second half-transformation.
	Two-electron integral transformation complete.
	(VV|OV)...
	Starting AA second half-transformation.
	Starting AB second half-transformation.
	Starting BB second half-transformation.
	Two-electron integral transformation complete.
	(VV|VV)...
	Starting AA second half-transformation.
	Starting AB second half-transformation.
	Starting BB second half-transformation.
	Two-electron integral transformation complete.
	Frozen core energy     =    -35.31173630654288

	Size of irrep 0 of <AB|CD> integrals:     11.096 (MW) /     88.764 (MB)
	Size of irrep 1 of <AB|CD> integrals:      7.097 (MW) /     56.775 (MB)
	Total:                                    18.192 (MW) /    145.540 (MB)

	Size of irrep 0 of <ab|cd> integrals:     11.337 (MW) /     90.694 (MB)
	Size of irrep 1 of <ab|cd> integrals:      7.497 (MW) /     59.973 (MB)
	Total:                                    18.833 (MW) /    150.667 (MB)

	Size of irrep 0 of <Ab|Cd> integrals:     46.349 (MW) /    370.791 (MB)
	Size of irrep 1 of <Ab|Cd> integrals:     29.182 (MW) /    233.453 (MB)
	Total:                                    75.530 (MW) /    604.244 (MB)

	Size of irrep 0 of <IA|BC> integrals:      1.747 (MW) /     13.977 (MB)
	Size of irrep 1 of <IA|BC> integrals:      0.970 (MW) /      7.758 (MB)
	Total:                                     2.717 (MW) /     21.735 (MB)

	Size of irrep 0 of <ia|bc> integrals:      1.520 (MW) /     12.157 (MB)
	Size of irrep 1 of <ia|bc> integrals:      0.608 (MW) /      4.863 (MB)
	Total:                                     2.127 (MW) /     17.019 (MB)

	Size of irrep 0 of <Ia|Bc> integrals:      1.763 (MW) /     14.106 (MB)
	Size of irrep 1 of <Ia|Bc> integrals:      0.999 (MW) /      7.995 (MB)
	Total:                                     2.763 (MW) /     22.101 (MB)

	Size of irrep 0 of <iA|bC> integrals:      1.511 (MW) /     12.091 (MB)
	Size of irrep 1 of <iA|bC> integrals:      0.583 (MW) /      4.667 (MB)
	Total:                                     2.095 (MW) /     16.758 (MB)

	Size of irrep 0 of tIjAb amplitudes:       0.061 (MW) /      0.490 (MB)
	Size of irrep 1 of tIjAb amplitudes:       0.016 (MW) /      0.130 (MB)
	Total:                                     0.077 (MW) /      0.620 (MB)

	Nuclear Rep. energy          =      9.71181899553151
	SCF energy                   =    -39.57805526738780
	One-electron energy          =    -23.46356831791278
	Two-electron (AA) energy     =      2.47030109611095
	Two-electron (BB) energy     =      1.12945773975520
	Two-electron (AB) energy     =      5.88567152566964
	Two-electron energy          =      9.48543036153578
	Reference energy             =    -39.57805526738836

*** tstop() called on cqc05 at Thu Aug 20 19:59:04 2020
Module time:
	user time   =       7.28 seconds =       0.12 minutes
	system time =       4.41 seconds =       0.07 minutes
	total time  =         12 seconds =       0.20 minutes
Total time:
	user time   =      13.78 seconds =       0.23 minutes
	system time =       4.77 seconds =       0.08 minutes
	total time  =         18 seconds =       0.30 minutes

*** tstart() called on cqc05
*** at Thu Aug 20 19:59:04 2020

            **************************
            *                        *
            *        CCENERGY        *
            *                        *
            **************************

    Nuclear Rep. energy (wfn)     =    9.711818995531509
    SCF energy          (wfn)     =  -39.578055267387796
    Reference energy    (file100) =  -39.578055267388365

    Input parameters:
    -----------------
    Wave function   =     CCSD
    Reference wfn   =     UHF
    Brueckner       =     No
    Memory (Mbytes) =     250000.0
    Maxiter         =     50
    R_Convergence   =     1.0e-07
    E_Convergence   =     1.0e-06
    Restart         =     Yes
    DIIS            =     Yes
    AO Basis        =     NONE
    ABCD            =     NEW
    Cache Level     =     2
    Cache Type      =     LRU
    Print Level     =     1
    Num. of threads =     4
    # Amps to Print =     10
    Print MP2 Amps? =     No
    Analyze T2 Amps =     No
    Print Pair Ener =     No
    Local CC        =     No
    SCS-MP2         =     False
    SCSN-MP2        =     False
    SCS-CCSD        =     False

MP2 correlation energy -0.1602623746216809
                Solving CC Amplitude Equations
                ------------------------------
  Iter             Energy              RMS        T1Diag      D1Diag    New D1Diag    D2Diag
  ----     ---------------------    ---------   ----------  ----------  ----------   --------
     0        -0.160262374621682    0.000e+00    0.000000    0.000000    0.000000    0.000000
     1        -0.175051170870761    3.951e-02    0.007647    0.000000    0.000000    0.000000
     2        -0.180139874297343    1.404e-02    0.010645    0.000000    0.000000    0.000000
     3        -0.180587329524887    4.647e-03    0.012068    0.000000    0.000000    0.000000
     4        -0.180596863397757    1.754e-03    0.012517    0.000000    0.000000    0.000000
     5        -0.180599876694874    5.517e-04    0.012581    0.000000    0.000000    0.000000
     6        -0.180603917449967    1.737e-04    0.012571    0.000000    0.000000    0.000000
     7        -0.180605614707528    6.353e-05    0.012556    0.000000    0.000000    0.000000
     8        -0.180605809266297    1.781e-05    0.012552    0.000000    0.000000    0.000000
     9        -0.180605764274668    4.649e-06    0.012551    0.000000    0.000000    0.000000
    10        -0.180605792981138    1.541e-06    0.012550    0.000000    0.000000    0.000000
    11        -0.180605812981984    4.619e-07    0.012550    0.000000    0.000000    0.000000
    12        -0.180605821251056    1.303e-07    0.012550    0.000000    0.000000    0.000000
    13        -0.180605822611031    4.843e-08    0.012550    0.000000    0.000000    0.000000
    13        -0.180605822611031    4.843e-08    0.012550    0.000000    0.000000    0.000000

    Iterations converged.

    CCSD corr. energy   =   -0.180605822611031
    PPL corr. energy    =    0.046404939824657
    OS PPL corr. energy =    0.040729497861129
    SS PPL corr. energy =    0.005675441963528
    Largest TIA Amplitudes:
              3  74        -0.0103777159
              3  77        -0.0071061366
              0   8         0.0065003837
              0  18        -0.0061801010
              0  13         0.0031945339
              3  95         0.0027594255
              1  41         0.0027427947
              2  40         0.0027427920
              1  26         0.0025648622
              2  27        -0.0025648612

    Largest Tia Amplitudes:
              0  18         0.0096703826
              2  16         0.0085685010
              1  17         0.0085684921
              0   8        -0.0075342393
              0  13        -0.0066749409
              2  22        -0.0058662792
              1  21         0.0058662742
              2   7        -0.0050142213
              1   6         0.0050142174
              2  40         0.0047427235

    Largest TIJAB Amplitudes:
      3   2  81  18         0.0141416535
      3   1  82  18         0.0141416498
      3   2  88  18         0.0111266852
      3   1  87  18        -0.0111266834
      3   2  81   8        -0.0107791489
      3   1  82   8        -0.0107791468
      3   2  76  18         0.0106736454
      3   1  75  18        -0.0106736422
      3   2  76   8        -0.0104427360
      3   1  75   8         0.0104427327

    Largest Tijab Amplitudes:
      2   1  19  17        -0.0093488027
      2   1  20  16         0.0093488019
      2   1  17   9        -0.0081737023
      2   1  16  10        -0.0081737005
      2   1   9   6         0.0064457917
      2   1  10   7        -0.0064457914
      2   1  17  16        -0.0061574193
      2   0  82  75        -0.0061209662
      1   0  83  75        -0.0061209659
      2   1  20  19        -0.0059356953

      * MP2 total energy                      =  -39.738317642010045
      * CCSD total energy                     =  -39.758661089999393
*** Psi4 exiting successfully. Buy a developer a beer!
