                               Psi4 1.2a1.dev939

  ==> Input File <==

--------------------------------------------------------------------------
# Any line starting with the # character is a comment line
memory 250000 mb
molecule molecule{
0 2
C          0.0000000006        0.0000000000        0.0000000109
H          0.9761315734        0.0000000000        0.4507044190
H         -0.8783873329        0.0000000000        0.6200024054
H         -0.0977442476        0.0000000000       -1.0707069548
}

set {
  reference uhf
  basis aug-cc-pv(6+d)z
  scf_type OUT_OF_CORE
  freeze_core true
}

energy('ccsd')
--------------------------------------------------------------------------

    Molecular point group: cs

    Geometry (in Angstrom), charge = 0, multiplicity = 2:

       Center              X                  Y                   Z               Mass
    ------------   -----------------  -----------------  -----------------  -----------------
           C         -0.000000000597     0.000000010941     0.000000000000    12.000000000000
           H         -0.976131573397     0.450704419041     0.000000000000     1.007825032070
           H          0.878387332903     0.620002405441     0.000000000000     1.007825032070
           H          0.097744247603    -1.070706954759     0.000000000000     1.007825032070

  Charge       = 0
  Multiplicity = 2
  Basis Set: AUG-CC-PV(6+D)Z
    Blend: AUG-CC-PV(6+D)Z

    Orbital Energies (a.u.)
    -----------------------

    Alpha Occupied:

       1Ap   -11.232476     2Ap    -0.948957     3Ap    -0.582256
       4Ap    -0.582256     1App   -0.384494

    Alpha Virtual:

       5Ap     0.021226     6Ap     0.034524     7Ap     0.034524
       2App    0.054790     8Ap     0.080602     9Ap     0.080602
      10Ap     0.094290    11Ap     0.139488    12Ap     0.139488
      13Ap     0.148053     3App    0.160530     4App    0.160530
       5App    0.201603    14Ap     0.203375    15Ap     0.203375
      16Ap     0.205225    17Ap     0.207540     6App    0.233171
       7App    0.233171     8App    0.245899    18Ap     0.247435
      19Ap     0.247435    20Ap     0.253998    21Ap     0.281018
      22Ap     0.281018    23Ap     0.308894    24Ap     0.308894
      25Ap     0.353233    26Ap     0.385438    27Ap     0.385438
       9App    0.409755    10App    0.409755    28Ap     0.483446
      29Ap     0.484352    30Ap     0.484352    31Ap     0.485945
      11App    0.494915    32Ap     0.502789    12App    0.504851
      13App    0.512845    14App    0.512845    15App    0.546310
      33Ap     0.556913    34Ap     0.569573    35Ap     0.569573
      36Ap     0.586682    37Ap     0.586682    16App    0.590411
      17App    0.590411    38Ap     0.624113    39Ap     0.624113
      18App    0.672009    40Ap     0.685159    41Ap     0.701182
      42Ap     0.701182    43Ap     0.712884    44Ap     0.745336
      19App    0.755543    20App    0.755543    45Ap     0.778245
      46Ap     0.778245    21App    0.893562    22App    0.893562
      47Ap     0.923720    48Ap     0.937143    49Ap     0.965877
      50Ap     0.965877    23App    0.969634    51Ap     1.013190
      52Ap     1.013190    53Ap     1.094087    24App    1.102421
      54Ap     1.123414    55Ap     1.123414    25App    1.124566
      26App    1.146128    27App    1.146128    56Ap     1.165912
      28App    1.187670    29App    1.187670    57Ap     1.197816
      58Ap     1.197816    30App    1.202914    59Ap     1.242089
      60Ap     1.242089    31App    1.251642    32App    1.251642
      61Ap     1.276733    62Ap     1.300171    63Ap     1.300171
      64Ap     1.385266    65Ap     1.385266    66Ap     1.387067
      67Ap     1.413030    68Ap     1.443301    33App    1.493576
      34App    1.493577    69Ap     1.499751    35App    1.515709
      36App    1.559373    37App    1.559373    70Ap     1.567926
      71Ap     1.567926    72Ap     1.611161    38App    1.617390
      73Ap     1.656803    74Ap     1.656803    75Ap     1.676607
      39App    1.680778    40App    1.680778    76Ap     1.716543
      77Ap     1.716543    41App    1.724504    42App    1.834134
      78Ap     1.917950    79Ap     1.917950    80Ap     1.945704
      81Ap     2.000882    82Ap     2.000882    43App    2.033752
      44App    2.033752    83Ap     2.056130    84Ap     2.154133
      85Ap     2.154133    45App    2.242723    46App    2.242723
      86Ap     2.263812    87Ap     2.263812    47App    2.272021
      48App    2.341190    88Ap     2.349179    89Ap     2.385124
      90Ap     2.436943    91Ap     2.436943    49App    2.447348
      50App    2.447348    92Ap     2.472306    51App    2.489460
      52App    2.489460    93Ap     2.491136    94Ap     2.491136
      53App    2.509038    95Ap     2.524115    54App    2.596988
      55App    2.609997    56App    2.609997    96Ap     2.628530
      97Ap     2.628530    98Ap     2.666718    99Ap     2.670125
     100Ap     2.670125    57App    2.695635    58App    2.695635
     101Ap     2.719653   102Ap     2.719653    59App    2.769099
      60App    2.783623    61App    2.786689    62App    2.786689
     103Ap     2.804166    63App    2.831367   104Ap     2.832352
     105Ap     2.832352   106Ap     2.865228   107Ap     2.892032
     108Ap     2.892032   109Ap     2.947650   110Ap     2.947650
     111Ap     2.969950    64App    2.986114   112Ap     3.054049
     113Ap     3.118736    65App    3.184313    66App    3.184313
     114Ap     3.238763   115Ap     3.238763   116Ap     3.326838
     117Ap     3.379293   118Ap     3.379293    67App    3.388000
      68App    3.388000    69App    3.438550   119Ap     3.444854
     120Ap     3.453111   121Ap     3.505815   122Ap     3.505815
      70App    3.519359    71App    3.519359   123Ap     3.624553
     124Ap     3.624553    72App    3.714071    73App    3.714071
     125Ap     3.743776   126Ap     3.814541    74App    3.841880
      75App    3.890879   127Ap     3.975584   128Ap     3.975584
      76App    4.056896    77App    4.056897    78App    4.164228
     129Ap     4.273383   130Ap     4.294073   131Ap     4.294073
     132Ap     4.373006   133Ap     4.373007    79App    4.461061
      80App    4.461061   134Ap     4.541292   135Ap     4.541292
      81App    4.584849    82App    4.584849    83App    4.635142
      84App    4.676110   136Ap     4.683844   137Ap     4.705781
     138Ap     4.705781   139Ap     4.733261   140Ap     4.794169
     141Ap     4.801209   142Ap     4.801209   143Ap     4.861276
      85App    4.921705    86App    4.921705   144Ap     4.993654
     145Ap     4.993654    87App    5.013296    88App    5.013296
      89App    5.130333   146Ap     5.176345    90App    5.178421
      91App    5.183273    92App    5.183274   147Ap     5.187332
     148Ap     5.188773    93App    5.193350   149Ap     5.201985
     150Ap     5.201985    94App    5.243795    95App    5.249618
      96App    5.249618   151Ap     5.261112   152Ap     5.261112
     153Ap     5.296017   154Ap     5.296017   155Ap     5.310066
      97App    5.391024   156Ap     5.401746   157Ap     5.405936
     158Ap     5.405936    98App    5.453437    99App    5.453437
     159Ap     5.513770   160Ap     5.513770   100App    5.523103
     161Ap     5.576127   162Ap     5.706536   101App    5.720505
     102App    5.720505   163Ap     5.761648   164Ap     5.761648
     165Ap     5.843927   166Ap     5.906610   167Ap     5.906610
     103App    5.913863   104App    5.913863   168Ap     5.943644
     169Ap     5.984204   170Ap     5.984204   105App    6.023641
     106App    6.023641   171Ap     6.085942   107App    6.169724
     172Ap     6.187358   173Ap     6.187358   108App    6.195040
     109App    6.195040   174Ap     6.278892   110App    6.333703
     111App    6.333703   112App    6.347011   175Ap     6.471689
     176Ap     6.471689   177Ap     6.491518   178Ap     6.491518
     113App    6.499272   179Ap     6.540414   114App    6.686024
     180Ap     6.742077   181Ap     6.742077   182Ap     6.952975
     183Ap     6.952976   184Ap     6.977619   115App    7.014911
     116App    7.040061   117App    7.040061   118App    7.128911
     119App    7.128911   185Ap     7.307956   120App    7.339271
     186Ap     7.445562   187Ap     7.516666   188Ap     7.516667
     189Ap     7.551660   121App    7.686714   190Ap     7.699510
     191Ap     7.699510   192Ap     7.746709   122App    7.827332
     123App    7.827332   193Ap     7.857650   194Ap     7.857650
     195Ap     8.054884   196Ap     8.054884   197Ap     8.121227
     124App    8.191656   125App    8.192441   126App    8.192441
     198Ap     8.217492   199Ap     8.322042   200Ap     8.322042
     127App    8.461323   128App    8.461323   129App    8.526230
     201Ap     8.799750   202Ap     8.799750   203Ap     8.801978
     130App    8.971017   131App    9.041281   132App    9.041281
     204Ap     9.100403   205Ap     9.100404   206Ap     9.559451
     207Ap     9.559451   208Ap     9.592521   209Ap     9.656982
     133App    9.697862   134App    9.697862   135App    9.819997
     210Ap     9.949804   136App    9.990252   137App    9.990252
     138App    9.993996   211Ap    10.180441   212Ap    10.180441
     213Ap    10.212125   214Ap    10.298828   215Ap    10.298828
     216Ap    10.351347   217Ap    10.351347   218Ap    10.360686
     139App   10.412815   140App   10.412815   219Ap    10.418247
     220Ap    10.418247   141App   10.455663   142App   10.547694
     143App   10.547695   221Ap    10.562237   222Ap    10.689145
     144App   10.707693   223Ap    10.741113   224Ap    10.741113
     145App   10.933910   146App   10.933911   225Ap    10.935104
     226Ap    10.935105   147App   11.008948   227Ap    11.058602
     228Ap    11.058602   229Ap    11.074679   148App   11.232401
     149App   11.232401   230Ap    11.335171   231Ap    11.554498
     232Ap    11.560090   233Ap    11.560091   150App   11.605567
     151App   11.722269   152App   11.722270   153App   12.150266
     154App   12.224487   155App   12.224487   234Ap    12.278561
     235Ap    12.278561   156App   12.290900   236Ap    12.320565
     237Ap    12.334078   238Ap    12.334078   239Ap    12.339300
     157App   12.456734   158App   12.456734   240Ap    12.652764
     241Ap    12.668008   242Ap    12.886143   243Ap    12.886143
     244Ap    13.210449   245Ap    13.535286   246Ap    13.535286
     159App   13.556120   160App   13.556120   247Ap    13.798382
     248Ap    13.798382   161App   13.846137   162App   13.969896
     249Ap    13.988196   250Ap    13.988196   251Ap    14.312744
     163App   14.352128   164App   14.352128   165App   14.455200
     252Ap    14.724526   166App   14.835833   167App   14.907775
     168App   14.907775   169App   15.072970   170App   15.072970
     253Ap    15.191105   254Ap    15.191105   255Ap    15.569769
     256Ap    15.569769   257Ap    15.633895   171App   15.728174
     258Ap    15.981845   172App   15.996803   173App   15.996803
     259Ap    16.239208   260Ap    16.239209   261Ap    16.246808
     262Ap    16.669208   263Ap    16.669208   174App   17.016591
     175App   17.242846   176App   17.242846   264Ap    17.259862
     265Ap    17.259862   266Ap    17.360187   267Ap    17.652540
     268Ap    17.652540   177App   17.656716   178App   17.656716
     179App   17.679314   269Ap    17.719818   270Ap    17.869071
     271Ap    17.970614   272Ap    17.970614   180App   18.199542
     273Ap    18.220403   274Ap    18.271043   275Ap    18.341494
     276Ap    18.341495   181App   18.346177   182App   18.346177
     183App   18.553762   277Ap    18.681816   278Ap    18.681816
     184App   18.749713   185App   18.749713   186App   19.279342
     279Ap    19.464140   280Ap    19.550177   187App   19.741062
     281Ap    20.100484   282Ap    20.100485   283Ap    20.245195
     284Ap    20.369795   285Ap    20.369795   188App   20.405106
     189App   20.405106   286Ap    20.505856   287Ap    20.600662
     288Ap    20.600662   190App   20.622011   191App   20.622011
     192App   20.657777   289Ap    20.872103   290Ap    20.872103
     193App   20.891694   194App   20.891694   291Ap    21.077452
     195App   21.117794   292Ap    21.615841   293Ap    21.615841
     196App   21.677138   294Ap    21.741144   295Ap    21.801686
     197App   21.866799   296Ap    21.897436   198App   21.924878
     199App   21.935858   200App   21.935858   297Ap    21.998772
     298Ap    21.998772   299Ap    22.228150   201App   22.251849
     202App   22.251849   300Ap    22.342476   301Ap    22.342476
     203App   22.416819   204App   22.504284   205App   22.504284
     302Ap    22.521937   303Ap    22.607510   304Ap    22.607510
     305Ap    22.907285   306Ap    22.907285   206App   22.918843
     207App   22.918843   208App   23.164296   209App   23.164297
     307Ap    23.185398   308Ap    23.185399   309Ap    23.881051
     310Ap    24.069579   311Ap    24.069579   210App   24.272828
     211App   24.272828   312Ap    24.374677   212App   24.408888
     313Ap    24.423108   314Ap    24.423108   213App   24.535539
     315Ap    24.549666   316Ap    24.549666   214App   24.699470
     215App   24.699470   317Ap    24.769047   318Ap    24.926699
     319Ap    25.382557   320Ap    25.382558   321Ap    25.479363
     216App   25.911097   217App   25.942663   218App   26.016215
     219App   26.016215   322Ap    26.036249   323Ap    26.036249
     220App   26.515838   221App   26.515838   324Ap    27.021632
     325Ap    27.021632   326Ap    27.432845   222App   27.435101
     327Ap    27.640117   328Ap    27.640117   223App   27.673437
     224App   27.673437   329Ap    27.876084   330Ap    28.303661
     331Ap    28.303661   332Ap    28.585278   333Ap    28.713880
     334Ap    28.713881   335Ap    28.867723   336Ap    29.203306
     225App   36.632394   226App   36.635437   227App   36.635437
     337Ap    37.141822   338Ap    37.141822   339Ap    38.472998
     340Ap    39.024614   341Ap    39.998698   342Ap    39.998698
     343Ap    65.928446

    Beta Occupied:

       1Ap   -11.209659     2Ap    -0.858815     3Ap    -0.568233
       4Ap    -0.568233

    Beta Virtual:

       5Ap     0.022037     6Ap     0.034648     7Ap     0.034648
       1App    0.044062     8Ap     0.080750     9Ap     0.080750
      10Ap     0.097495     2App    0.114253    11Ap     0.140454
      12Ap     0.140454    13Ap     0.152286     3App    0.163177
       4App    0.163177    14Ap     0.203290    15Ap     0.203290
      16Ap     0.205189    17Ap     0.208973     5App    0.220194
       6App    0.234218     7App    0.234218    18Ap     0.248198
      19Ap     0.248198    20Ap     0.260869    21Ap     0.282908
      22Ap     0.282908     8App    0.291519    23Ap     0.309317
      24Ap     0.309317    25Ap     0.376852    26Ap     0.387985
      27Ap     0.387985     9App    0.420929    10App    0.420929
      28Ap     0.485430    29Ap     0.485430    30Ap     0.485470
      31Ap     0.489037    32Ap     0.504444    11App    0.505200
      12App    0.510989    13App    0.514355    14App    0.514355
      15App    0.550710    33Ap     0.571721    34Ap     0.574227
      35Ap     0.574227    36Ap     0.587797    37Ap     0.587797
      16App    0.598484    17App    0.598484    38Ap     0.624202
      39Ap     0.624202    40Ap     0.685420    41Ap     0.703926
      42Ap     0.703926    18App    0.722015    43Ap     0.732630
      44Ap     0.746977    19App    0.768156    20App    0.768156
      45Ap     0.782440    46Ap     0.782440    21App    0.902473
      22App    0.902473    47Ap     0.934854    48Ap     0.935741
      49Ap     0.970921    50Ap     0.970921    23App    0.989245
      51Ap     1.014707    52Ap     1.014707    24App    1.104081
      53Ap     1.109923    25App    1.125517    54Ap     1.126496
      55Ap     1.126496    26App    1.148457    27App    1.148457
      56Ap     1.169607    28App    1.190092    29App    1.190092
      57Ap     1.199206    58Ap     1.199206    30App    1.211439
      59Ap     1.244061    60Ap     1.244061    31App    1.263545
      32App    1.263545    61Ap     1.277311    62Ap     1.302246
      63Ap     1.302246    64Ap     1.387540    65Ap     1.387540
      66Ap     1.387859    67Ap     1.420469    68Ap     1.448779
      69Ap     1.506539    33App    1.513208    34App    1.513208
      35App    1.546116    36App    1.564270    37App    1.564270
      70Ap     1.572492    71Ap     1.572492    38App    1.620243
      72Ap     1.630184    73Ap     1.667589    74Ap     1.667589
      75Ap     1.675176    39App    1.693427    40App    1.693427
      76Ap     1.718564    77Ap     1.718564    41App    1.728688
      42App    1.869945    78Ap     1.923509    79Ap     1.923509
      80Ap     1.957692    81Ap     2.003293    82Ap     2.003293
      43App    2.039195    44App    2.039196    83Ap     2.060984
      84Ap     2.156307    85Ap     2.156307    45App    2.249515
      46App    2.249515    86Ap     2.265440    87Ap     2.265440
      47App    2.273273    88Ap     2.349746    48App    2.352246
      89Ap     2.386795    90Ap     2.438602    91Ap     2.438602
      49App    2.451967    50App    2.451967    92Ap     2.487823
      93Ap     2.492234    94Ap     2.492234    51App    2.493744
      52App    2.493744    53App    2.510455    95Ap     2.524845
      54App    2.597555    55App    2.613485    56App    2.613485
      96Ap     2.629368    97Ap     2.629368    98Ap     2.672966
      99Ap     2.672966   100Ap     2.675261    57App    2.700365
      58App    2.700365   101Ap     2.721848   102Ap     2.721848
      59App    2.771531    60App    2.794917    61App    2.794917
      62App    2.801756   103Ap     2.810833   104Ap     2.834225
     105Ap     2.834225    63App    2.834454   106Ap     2.866834
     107Ap     2.901054   108Ap     2.901054   109Ap     2.954748
     110Ap     2.954748   111Ap     2.970321    64App    2.992541
     112Ap     3.066132   113Ap     3.124451    65App    3.196438
      66App    3.196438   114Ap     3.242257   115Ap     3.242257
     116Ap     3.333960   117Ap     3.384539   118Ap     3.384539
      67App    3.406463    68App    3.406463    69App    3.451263
     119Ap     3.452386   120Ap     3.455590   121Ap     3.511939
     122Ap     3.511939    70App    3.528454    71App    3.528454
     123Ap     3.630981   124Ap     3.630981    72App    3.725692
      73App    3.725692   125Ap     3.754744   126Ap     3.816200
      74App    3.875977    75App    3.896749   127Ap     3.978281
     128Ap     3.978281    76App    4.067238    77App    4.067238
      78App    4.179138   129Ap     4.300786   130Ap     4.300982
     131Ap     4.300982   132Ap     4.379970   133Ap     4.379970
      79App    4.465297    80App    4.465297   134Ap     4.546263
     135Ap     4.546263    81App    4.586904    82App    4.586904
      83App    4.636504    84App    4.679111   136Ap     4.687130
     137Ap     4.708234   138Ap     4.708234   139Ap     4.734572
     140Ap     4.797236   141Ap     4.802869   142Ap     4.802870
     143Ap     4.865147    85App    4.925253    86App    4.925253
     144Ap     4.995031   145Ap     4.995031    87App    5.014279
      88App    5.014279    89App    5.133719   146Ap     5.176816
      90App    5.183605    91App    5.187081    92App    5.187081
     147Ap     5.189331   148Ap     5.190450    93App    5.199654
     149Ap     5.205225   150Ap     5.205225    94App    5.246149
      95App    5.250522    96App    5.250522   151Ap     5.262917
     152Ap     5.262917   153Ap     5.299021   154Ap     5.299021
     155Ap     5.310123    97App    5.393304   156Ap     5.403402
     157Ap     5.407452   158Ap     5.407452    98App    5.454851
      99App    5.454851   159Ap     5.515425   160Ap     5.515425
     100App    5.523599   161Ap     5.577106   162Ap     5.708127
     101App    5.723721   102App    5.723721   163Ap     5.763273
     164Ap     5.763273   165Ap     5.844769   166Ap     5.909651
     167Ap     5.909651   103App    5.924097   104App    5.924097
     168Ap     5.953400   169Ap     5.989959   170Ap     5.989959
     105App    6.033384   106App    6.033384   171Ap     6.091670
     107App    6.180424   172Ap     6.189467   173Ap     6.189467
     108App    6.206334   109App    6.206335   174Ap     6.285675
     110App    6.341126   111App    6.341126   112App    6.352909
     175Ap     6.477863   176Ap     6.477863   177Ap     6.496401
     178Ap     6.496401   113App    6.507008   179Ap     6.549180
     114App    6.705524   180Ap     6.745280   181Ap     6.745280
     182Ap     6.957139   183Ap     6.957139   184Ap     6.983845
     115App    7.034490   116App    7.048831   117App    7.048831
     118App    7.139442   119App    7.139442   185Ap     7.324559
     120App    7.340668   186Ap     7.445807   187Ap     7.530128
     188Ap     7.530128   189Ap     7.555873   121App    7.695444
     190Ap     7.708318   191Ap     7.708318   192Ap     7.767847
     122App    7.844997   123App    7.844997   193Ap     7.858387
     194Ap     7.858387   195Ap     8.064163   196Ap     8.064163
     197Ap     8.123487   124App    8.198089   125App    8.198089
     126App    8.205619   198Ap     8.228607   199Ap     8.331180
     200Ap     8.331180   127App    8.469664   128App    8.469664
     129App    8.541214   201Ap     8.804098   202Ap     8.804475
     203Ap     8.804475   130App    8.973709   131App    9.046553
     132App    9.046553   204Ap     9.104940   205Ap     9.104940
     206Ap     9.563300   207Ap     9.563300   208Ap     9.593863
     209Ap     9.657712   133App    9.703926   134App    9.703926
     135App    9.823362   210Ap     9.952355   136App    9.991753
     137App    9.991753   138App    9.998216   211Ap    10.182110
     212Ap    10.182110   213Ap    10.214394   214Ap    10.299411
     215Ap    10.299411   216Ap    10.352990   217Ap    10.352990
     218Ap    10.363796   219Ap    10.419129   220Ap    10.419129
     139App   10.426728   140App   10.426728   141App   10.456735
     142App   10.549165   143App   10.549165   221Ap    10.561916
     222Ap    10.696527   144App   10.707380   223Ap    10.742782
     224Ap    10.742782   145App   10.937387   146App   10.937387
     225Ap    10.939095   226Ap    10.939095   147App   11.011154
     227Ap    11.059771   228Ap    11.059771   229Ap    11.079513
     148App   11.233030   149App   11.233030   230Ap    11.335482
     231Ap    11.560866   232Ap    11.562334   233Ap    11.562334
     150App   11.611065   151App   11.725336   152App   11.725336
     153App   12.158853   154App   12.230479   155App   12.230479
     234Ap    12.281273   235Ap    12.281273   156App   12.296690
     236Ap    12.323666   237Ap    12.335755   238Ap    12.335755
     239Ap    12.343832   157App   12.461876   158App   12.461876
     240Ap    12.654378   241Ap    12.672572   242Ap    12.889169
     243Ap    12.889170   244Ap    13.219294   245Ap    13.544567
     246Ap    13.544567   159App   13.565360   160App   13.565360
     247Ap    13.802628   248Ap    13.802628   161App   13.853591
     162App   13.977303   249Ap    13.993318   250Ap    13.993318
     251Ap    14.319785   163App   14.358615   164App   14.358615
     165App   14.465723   252Ap    14.731802   166App   14.851741
     167App   14.915235   168App   14.915235   169App   15.081715
     170App   15.081715   253Ap    15.200252   254Ap    15.200252
     255Ap    15.574411   256Ap    15.574411   257Ap    15.643128
     171App   15.750665   258Ap    15.983529   172App   16.005439
     173App   16.005440   259Ap    16.254831   260Ap    16.254831
     261Ap    16.257041   262Ap    16.675580   263Ap    16.675580
     174App   17.027560   175App   17.258315   176App   17.258315
     264Ap    17.262435   265Ap    17.262435   266Ap    17.360434
     267Ap    17.652654   268Ap    17.652654   177App   17.656795
     178App   17.656795   179App   17.679594   269Ap    17.719956
     270Ap    17.873096   271Ap    17.979911   272Ap    17.979911
     180App   18.201918   273Ap    18.236676   274Ap    18.272265
     275Ap    18.343859   276Ap    18.343860   181App   18.348575
     182App   18.348575   183App   18.555249   277Ap    18.684306
     278Ap    18.684306   184App   18.760625   185App   18.760626
     186App   19.288234   279Ap    19.468378   280Ap    19.554307
     187App   19.750821   281Ap    20.102898   282Ap    20.102899
     283Ap    20.246262   284Ap    20.371214   285Ap    20.371214
     188App   20.407709   189App   20.407709   286Ap    20.514814
     287Ap    20.603865   288Ap    20.603865   190App   20.627867
     191App   20.627867   192App   20.657960   289Ap    20.871831
     290Ap    20.871831   193App   20.891206   194App   20.891206
     291Ap    21.078797   195App   21.118120   292Ap    21.617298
     293Ap    21.617298   196App   21.677603   294Ap    21.742240
     295Ap    21.801262   197App   21.869343   296Ap    21.896980
     198App   21.924304   199App   21.936803   200App   21.936803
     297Ap    21.998503   298Ap    21.998503   299Ap    22.229105
     201App   22.251988   202App   22.251989   300Ap    22.342209
     301Ap    22.342209   203App   22.418279   204App   22.504912
     205App   22.504912   302Ap    22.522956   303Ap    22.607923
     304Ap    22.607923   305Ap    22.908015   306Ap    22.908015
     206App   22.923044   207App   22.923044   208App   23.169426
     209App   23.169426   307Ap    23.185761   308Ap    23.185761
     309Ap    23.881575   310Ap    24.070083   311Ap    24.070084
     210App   24.272357   211App   24.272357   312Ap    24.373954
     212App   24.407735   313Ap    24.422294   314Ap    24.422294
     213App   24.534449   315Ap    24.548875   316Ap    24.548875
     214App   24.698570   215App   24.698570   317Ap    24.768245
     318Ap    24.926274   319Ap    25.382292   320Ap    25.382293
     321Ap    25.479646   216App   25.910752   217App   25.943283
     218App   26.016597   219App   26.016597   322Ap    26.035510
     323Ap    26.035511   220App   26.516451   221App   26.516452
     324Ap    27.020963   325Ap    27.020963   326Ap    27.433489
     222App   27.436038   327Ap    27.640402   328Ap    27.640402
     223App   27.674678   224App   27.674678   329Ap    27.875807
     330Ap    28.303491   331Ap    28.303491   332Ap    28.585028
     333Ap    28.714472   334Ap    28.714472   335Ap    28.867919
     336Ap    29.203383   225App   36.631254   226App   36.634256
     227App   36.634256   337Ap    37.140210   338Ap    37.140210
     339Ap    38.471423   340Ap    39.023512   341Ap    39.997459
     342Ap    39.997459   343Ap    65.934585

    Final Occupation by Irrep:
             Ap   App
    DOCC [     4,    0 ]

  @UHF Final Energy:   -39.58119258906627

   => Energetics <=

    Nuclear Repulsion Energy =              9.7118189955315071
    One-Electron Energy =                 -71.6506441455931053
    Two-Electron Energy =                  22.3576325609953237
    Total Energy =                        -39.5811925890662764
      * MP2 total energy                      =  -39.755274772426162
      * CCSD total energy                     =  -39.771543738784871
*** Psi4 exiting successfully. Buy a developer a beer!
