                               Psi4 1.2a1.dev938

  ==> Input File <==

--------------------------------------------------------------------------
# Any line starting with the # character is a comment line
memory 250000 mb
molecule molecule{
0 2
C          0.0000000006        0.0000000000        0.0000000109
H          0.9761315734        0.0000000000        0.4507044190
H         -0.8783873329        0.0000000000        0.6200024054
H         -0.0977442476        0.0000000000       -1.0707069548
}

set {
  reference uhf
  basis aug-cc-pv(d+d)z
  scf_type OUT_OF_CORE
  freeze_core true
}

energy('ccsd')
--------------------------------------------------------------------------

    Molecular point group: cs

    Geometry (in Angstrom), charge = 0, multiplicity = 2:

       Center              X                  Y                   Z               Mass
    ------------   -----------------  -----------------  -----------------  -----------------
           C         -0.000000000597     0.000000010941     0.000000000000    12.000000000000
           H         -0.976131573397     0.450704419041     0.000000000000     1.007825032070
           H          0.878387332903     0.620002405441     0.000000000000     1.007825032070
           H          0.097744247603    -1.070706954759     0.000000000000     1.007825032070

  Charge       = 0
  Multiplicity = 2
  Basis Set: AUG-CC-PV(D+D)Z
    Blend: AUG-CC-PV(D+D)Z

    Orbital Energies (a.u.)
    -----------------------

    Alpha Occupied:

       1Ap   -11.241367     2Ap    -0.950278     3Ap    -0.581987
       4Ap    -0.581987     1App   -0.383027

    Alpha Virtual:

       5Ap     0.037481     6Ap     0.059907     7Ap     0.059907
       2App    0.116254     8Ap     0.151026     9Ap     0.151026
      10Ap     0.173825    11Ap     0.286087    12Ap     0.286087
      13Ap     0.290667     3App    0.362638     4App    0.362638
      14Ap     0.445126    15Ap     0.445126     5App    0.485294
      16Ap     0.511197    17Ap     0.537569    18Ap     0.566754
      19Ap     0.569931    20Ap     0.569931     6App    0.623481
       7App    0.623481    21Ap     0.664048    22Ap     0.664048
       8App    0.908472    23Ap     0.937982    24Ap     1.121822
      25Ap     1.121822    26Ap     1.453301    27Ap     1.453301
       9App    1.518010    10App    1.518010    28Ap     1.744165
      29Ap     1.838620    11App    1.973307    30Ap     1.989568
      31Ap     1.989568    32Ap     2.109504    12App    2.277122
      13App    2.277122    33Ap     2.498959    34Ap     2.498960
      35Ap     2.844815    36Ap     3.027356    37Ap     3.027356

    Beta Occupied:

       1Ap   -11.217622     2Ap    -0.859681     3Ap    -0.566966
       4Ap    -0.566966

    Beta Virtual:

       5Ap     0.039256     6Ap     0.060321     7Ap     0.060321
       1App    0.067785     8Ap     0.151699     9Ap     0.151699
      10Ap     0.181149     2App    0.198945    11Ap     0.290084
      12Ap     0.290084    13Ap     0.316052     3App    0.379692
       4App    0.379692    14Ap     0.447362    15Ap     0.447362
      16Ap     0.510405     5App    0.528523    17Ap     0.566863
      18Ap     0.572900    19Ap     0.572900    20Ap     0.582050
       6App    0.642588     7App    0.642588    21Ap     0.671576
      22Ap     0.671576    23Ap     0.960604     8App    1.010051
      24Ap     1.133935    25Ap     1.133935    26Ap     1.457704
      27Ap     1.457704     9App    1.564052    10App    1.564052
      28Ap     1.789639    29Ap     1.834898    11App    1.988342
      30Ap     1.992656    31Ap     1.992656    32Ap     2.152557
      12App    2.307452    13App    2.307452    33Ap     2.503977
      34Ap     2.503977    35Ap     2.850307    36Ap     3.036076
      37Ap     3.036077

    Final Occupation by Irrep:
             Ap   App
    DOCC [     4,    0 ]
    SOCC [     0,    1 ]

  Energy converged.

  @UHF Final Energy:   -39.56577576751015

   => Energetics <=

    Nuclear Repulsion Energy =              9.7118189955315088
    One-Electron Energy =                 -71.6053090899672497
    Two-Electron Energy =                  22.3277143269255944
    Total Energy =                        -39.5657757675101465

  UHF NO Occupations:
  HONO-2 :    3 Ap 1.9991797
  HONO-1 :    4 Ap 1.9961037
  HONO-0 :    1App 1.0000000
  LUNO+0 :    5 Ap 0.0038963
  LUNO+1 :    6 Ap 0.0008203
  LUNO+2 :    7 Ap 0.0008203
  LUNO+3 :    8 Ap 0.0000005

Properties will be evaluated at   0.000000,   0.000000,   0.000000 Bohr

Properties computed using the SCF density matrix

  Nuclear Dipole Moment: (a.u.)
     X:     0.0000      Y:    -0.0000      Z:     0.0000

  Electronic Dipole Moment: (a.u.)
     X:    -0.0000      Y:     0.0000      Z:     0.0000

  Dipole Moment: (a.u.)
     X:     0.0000      Y:    -0.0000      Z:     0.0000     Total:     0.0000

  Dipole Moment: (Debye)
     X:     0.0000      Y:    -0.0000      Z:     0.0000     Total:     0.0000

*** tstop() called on cqc05 at Thu Aug 20 19:53:44 2020
Module time:
	user time   =       0.88 seconds =       0.01 minutes
	system time =       0.04 seconds =       0.00 minutes
	total time  =          1 seconds =       0.02 minutes
Total time:
	user time   =       0.88 seconds =       0.01 minutes
	system time =       0.04 seconds =       0.00 minutes
	total time  =          1 seconds =       0.02 minutes

*** tstart() called on cqc05
*** at Thu Aug 20 19:53:44 2020

	Wfn Parameters:
	--------------------
	Wavefunction         = CCSD
	Number of irreps     = 2
	Number of MOs        = 50
	Number of active MOs = 49
	AO-Basis             = NONE
	Semicanonical        = false
	Reference            = UHF
	Print Level          = 1

	IRREP	# MOs	# FZDC	# DOCC	# SOCC	# VIRT	# FZVR
	-----	-----	------	------	------	------	------
	 Ap	   37	    1	    3	    0	    33	    0
	 App	   13	    0	    0	    1	    12	    0
	Transforming integrals...
	IWL integrals will be deleted.
	(OO|OO)...
	Presorting SO-basis two-electron integrals.
	Sorting File: SO Ints (nn|nn) nbuckets = 1
	Transforming the one-electron integrals and constructing Fock matrices
	Starting AA/AB first half-transformation.
	Sorting AA/AB half-transformed integrals.
	Starting BB first half-transformation.
	Sorting BB half-transformed integrals.
	First half integral transformation complete.
	Starting AA second half-transformation.
	Starting AB second half-transformation.
	Starting BB second half-transformation.
	Two-electron integral transformation complete.
	(OO|OV)...
	Starting AA second half-transformation.
	Starting AB second half-transformation.
	Starting BB second half-transformation.
	Two-electron integral transformation complete.
	(OO|VV)...
	Starting AA second half-transformation.
	Starting AB second half-transformation.
	Starting BB second half-transformation.
	Two-electron integral transformation complete.
	(OV|OO)...
	Starting AA/AB first half-transformation.
	Sorting AA/AB half-transformed integrals.
	Starting BB first half-transformation.
	Sorting BB half-transformed integrals.
	First half integral transformation complete.
	Starting AA second half-transformation.
	Starting AB second half-transformation.
	Starting BB second half-transformation.
	Two-electron integral transformation complete.
	(OV|OV)...
	Starting AA second half-transformation.
	Starting AB second half-transformation.
	Starting BB second half-transformation.
	Two-electron integral transformation complete.
	(OV|VV)...
	Starting AA second half-transformation.
	Starting AB second half-transformation.
	Starting BB second half-transformation.
	Two-electron integral transformation complete.
	(VV|OO)...
	Starting AA/AB first half-transformation.
	Sorting AA/AB half-transformed integrals.
	Starting BB first half-transformation.
	Sorting BB half-transformed integrals.
	First half integral transformation complete.
	Starting AA second half-transformation.
	Starting AB second half-transformation.
	Starting BB second half-transformation.
	Two-electron integral transformation complete.
	(VV|OV)...
	Starting AA second half-transformation.
	Starting AB second half-transformation.
	Starting BB second half-transformation.
	Two-electron integral transformation complete.
	(VV|VV)...
	Starting AA second half-transformation.
	Starting AB second half-transformation.
	Starting BB second half-transformation.
	Two-electron integral transformation complete.
	Frozen core energy     =    -35.31159722458109

	Size of irrep 0 of <AB|CD> integrals:      0.353 (MW) /      2.823 (MB)
	Size of irrep 1 of <AB|CD> integrals:      0.157 (MW) /      1.255 (MB)
	Total:                                     0.510 (MW) /      4.077 (MB)

	Size of irrep 0 of <ab|cd> integrals:      0.367 (MW) /      2.938 (MB)
	Size of irrep 1 of <ab|cd> integrals:      0.184 (MW) /      1.472 (MB)
	Total:                                     0.551 (MW) /      4.410 (MB)

	Size of irrep 0 of <Ab|Cd> integrals:      1.550 (MW) /     12.400 (MB)
	Size of irrep 1 of <Ab|Cd> integrals:      0.681 (MW) /      5.445 (MB)
	Total:                                     2.231 (MW) /     17.845 (MB)

	Size of irrep 0 of <IA|BC> integrals:      0.137 (MW) /      1.095 (MB)
	Size of irrep 1 of <IA|BC> integrals:      0.055 (MW) /      0.437 (MB)
	Total:                                     0.192 (MW) /      1.532 (MB)

	Size of irrep 0 of <ia|bc> integrals:      0.125 (MW) /      0.996 (MB)
	Size of irrep 1 of <ia|bc> integrals:      0.033 (MW) /      0.268 (MB)
	Total:                                     0.158 (MW) /      1.264 (MB)

	Size of irrep 0 of <Ia|Bc> integrals:      0.139 (MW) /      1.116 (MB)
	Size of irrep 1 of <Ia|Bc> integrals:      0.059 (MW) /      0.475 (MB)
	Total:                                     0.199 (MW) /      1.591 (MB)

	Size of irrep 0 of <iA|bC> integrals:      0.123 (MW) /      0.986 (MB)
	Size of irrep 1 of <iA|bC> integrals:      0.030 (MW) /      0.238 (MB)
	Total:                                     0.153 (MW) /      1.224 (MB)

	Size of irrep 0 of tIjAb amplitudes:       0.011 (MW) /      0.090 (MB)
	Size of irrep 1 of tIjAb amplitudes:       0.002 (MW) /      0.020 (MB)
	Total:                                     0.014 (MW) /      0.109 (MB)

	Nuclear Rep. energy          =      9.71181899553151
	SCF energy                   =    -39.56577576751015
	One-electron energy          =    -23.44110337582446
	Two-electron (AA) energy     =      2.46792550572659
	Two-electron (BB) energy     =      1.12835715885976
	Two-electron (AB) energy     =      5.87882317277742
	Two-electron energy          =      9.47510583736378
	Reference energy             =    -39.56577576751026

*** tstop() called on cqc05 at Thu Aug 20 19:53:44 2020
Module time:
	user time   =       0.27 seconds =       0.00 minutes
	system time =       0.15 seconds =       0.00 minutes
	total time  =          0 seconds =       0.00 minutes
Total time:
	user time   =       1.15 seconds =       0.02 minutes
	system time =       0.19 seconds =       0.00 minutes
	total time  =          1 seconds =       0.02 minutes

*** tstart() called on cqc05
*** at Thu Aug 20 19:53:44 2020

            **************************
            *                        *
            *        CCENERGY        *
            *                        *
            **************************

    Nuclear Rep. energy (wfn)     =    9.711818995531509
    SCF energy          (wfn)     =  -39.565775767510146
    Reference energy    (file100) =  -39.565775767510260

    Input parameters:
    -----------------
    Wave function   =     CCSD
    Reference wfn   =     UHF
    Brueckner       =     No
    Memory (Mbytes) =     250000.0
    Maxiter         =     50
    R_Convergence   =     1.0e-07
    E_Convergence   =     1.0e-06
    Restart         =     Yes
    DIIS            =     Yes
    AO Basis        =     NONE
    ABCD            =     NEW
    Cache Level     =     2
    Cache Type      =     LRU
    Print Level     =     1
    Num. of threads =     4
    # Amps to Print =     10
    Print MP2 Amps? =     No
    Analyze T2 Amps =     No
    Print Pair Ener =     No
    Local CC        =     No
    SCS-MP2         =     False
    SCSN-MP2        =     False
    SCS-CCSD        =     False

MP2 correlation energy -0.1321553256912534
                Solving CC Amplitude Equations
                ------------------------------
  Iter             Energy              RMS        T1Diag      D1Diag    New D1Diag    D2Diag
  ----     ---------------------    ---------   ----------  ----------  ----------   --------
     0        -0.132155325691253    0.000e+00    0.000000    0.000000    0.000000    0.000000
     1        -0.149316638671374    4.067e-02    0.006865    0.000000    0.000000    0.000000
     2        -0.154597810667045    1.457e-02    0.010417    0.000000    0.000000    0.000000
     3        -0.154991781179551    4.657e-03    0.011838    0.000000    0.000000    0.000000
     4        -0.155002010937150    1.600e-03    0.012168    0.000000    0.000000    0.000000
     5        -0.155008637007480    5.686e-04    0.012221    0.000000    0.000000    0.000000
     6        -0.155013633063970    1.717e-04    0.012199    0.000000    0.000000    0.000000
     7        -0.155014789382628    5.540e-05    0.012184    0.000000    0.000000    0.000000
     8        -0.155015015679145    1.650e-05    0.012179    0.000000    0.000000    0.000000
     9        -0.155015036739506    4.138e-06    0.012178    0.000000    0.000000    0.000000
    10        -0.155015058471015    1.291e-06    0.012178    0.000000    0.000000    0.000000
    11        -0.155015069492936    4.273e-07    0.012178    0.000000    0.000000    0.000000
    12        -0.155015076364519    1.266e-07    0.012178    0.000000    0.000000    0.000000
    13        -0.155015077847374    4.126e-08    0.012178    0.000000    0.000000    0.000000
    13        -0.155015077847374    4.126e-08    0.012178    0.000000    0.000000    0.000000

    Iterations converged.

    CCSD corr. energy   =   -0.155015077847374
    PPL corr. energy    =    0.036542477349269
    OS PPL corr. energy =    0.031941587677985
    SS PPL corr. energy =    0.004600889671284
    Largest TIA Amplitudes:
              3  33        -0.0158926784
              0   8        -0.0087819633
              3  36        -0.0075844731
              0  18         0.0041324015
              1  25         0.0037441606
              2  26        -0.0037441601
              2  28         0.0035162975
              1  29         0.0035162967
              2   9        -0.0030614006
              1  10        -0.0030613991

    Largest Tia Amplitudes:
              0   8         0.0083597037
              0  18        -0.0072912465
              2  16         0.0069305990
              1  17         0.0069305987
              0  15         0.0056104276
              2   7        -0.0053158885
              1   6         0.0053158865
              0  27        -0.0048435041
              1  20         0.0042351617
              2  19         0.0042351616

    Largest TIJAB Amplitudes:
      3   2  35   8        -0.0163366970
      3   1  34   8        -0.0163366622
      3   1  39  20        -0.0144828107
      3   2  39  19        -0.0144828107
      2   1  17   9         0.0118838313
      2   1  16  10        -0.0118838298
      2   1  10   7        -0.0102482947
      2   1   9   6        -0.0102482945
      3   1  36  20        -0.0101751607
      3   2  36  19        -0.0101751607

    Largest Tijab Amplitudes:
      2   1  10   7        -0.0120738089
      2   1   9   6         0.0120738084
      2   1  17   9        -0.0112910866
      2   1  16  10        -0.0112910853
      2   1  20  19         0.0088775848
      2   1  21  17        -0.0076723602
      2   1  22  16         0.0076723591
      2   1  17  16        -0.0069790808
      2   1   7   4         0.0069582010
      2   1   6   3         0.0069582005

    Largest TIjAb Amplitudes:
      3   0   8  34        -0.0389969746
      3   0   8  33        -0.0285977997
      1   1  17  17        -0.0259245067
      2   2  16  16        -0.0259245044
      3   0  18  34         0.0255091766
      2   2  18  18        -0.0236131777
      1   1  18  18        -0.0236131654
      1   1   6   6        -0.0233913991
      2   2   7   7        -0.0233913838
      1   1  20  20        -0.0232224889

    SCF energy       (wfn)                    =  -39.565775767510146
    Reference energy (file100)                =  -39.565775767510260

    Opposite-spin MP2 correlation energy      =   -0.106252918198777
    Same-spin MP2 correlation energy          =   -0.025902407492476
    MP2 correlation energy                    =   -0.132155325691253
      * MP2 total energy                      =  -39.697931093201511

    Opposite-spin CCSD correlation energy     =   -0.128732852861798
    Same-spin CCSD correlation energy         =   -0.026282224652763
    CCSD correlation energy                   =   -0.155015077847374
      * CCSD total energy                     =  -39.720790845357634

*** tstop() called on cqc05 at Thu Aug 20 19:53:46 2020
Module time:
	user time   =       0.46 seconds =       0.01 minutes
	system time =       0.25 seconds =       0.00 minutes
	total time  =          2 seconds =       0.03 minutes
Total time:
	user time   =       1.61 seconds =       0.03 minutes
	system time =       0.44 seconds =       0.01 minutes
	total time  =          3 seconds =       0.05 minutes

*** Psi4 exiting successfully. Buy a developer a beer!
