                               Psi4 1.2a1.dev938

  ==> Input File <==

--------------------------------------------------------------------------
# Any line starting with the # character is a comment line
memory 250000 mb
molecule molecule{
1 2
O          0.0000000000        0.0000000000       -0.0647184239
H          0.0000000000        0.8152105035        0.5136495982
H          0.0000000000       -0.8152105035        0.5136495982
}

set {
  reference uhf
  basis aug-cc-pv(q+d)z
  scf_type OUT_OF_CORE
  freeze_core true
}

energy('ccsd')
--------------------------------------------------------------------------

    Molecular point group: c2v

    Geometry (in Angstrom), charge = 1, multiplicity = 2:

       Center              X                  Y                   Z               Mass
    ------------   -----------------  -----------------  -----------------  -----------------
           O          0.000000000000     0.000000000000    -0.064727983898    15.994914619560
           H         -0.000000000000     0.815210503500     0.513640038202     1.007825032070
           H          0.000000000000    -0.815210503500     0.513640038202     1.007825032070

  Charge       = 1
  Multiplicity = 2
  Basis Set: AUG-CC-PV(Q+D)Z
    Blend: AUG-CC-PV(Q+D)Z

    Orbital Energies (a.u.)
    -----------------------

    Alpha Occupied:

       1A1   -21.122451     2A1    -1.881682     1B2    -1.194459
       1B1    -1.121061     3A1    -1.073505

    Alpha Virtual:

       4A1    -0.185019     2B2    -0.118491     2B1    -0.074830
       5A1    -0.070995     6A1    -0.052907     3B2    -0.037013
       4B2    -0.005559     7A1    -0.003636     1A2     0.006043
       3B1     0.029797     8A1     0.041315     5B2     0.111645
       9A1     0.114312     6B2     0.131369    10A1     0.229723
       7B2     0.232052    11A1     0.276167     2A2     0.276957
       4B1     0.277995    12A1     0.350894     5B1     0.354370
       6B1     0.386452     8B2     0.400223     3A2     0.414294
      13A1     0.429192    14A1     0.436536     9B2     0.472109
      15A1     0.497347     7B1     0.501524    10B2     0.515035
      11B2     0.538051    16A1     0.597752     4A2     0.609268
      12B2     0.696385     5A2     0.809824    17A1     0.840976
       8B1     0.867831    18A1     0.964308    13B2     1.092898
      19A1     1.115090     9B1     1.153515    14B2     1.166013
      20A1     1.208357     6A2     1.209951    10B1     1.275785
      21A1     1.284979    15B2     1.295519    11B1     1.331203
      22A1     1.344303    23A1     1.394351     7A2     1.403195
      16B2     1.403887    12B1     1.431980    24A1     1.473218
      17B2     1.482537    18B2     1.540355    25A1     1.566222
       8A2     1.576213    19B2     1.583001    13B1     1.628652
      26A1     1.699583    20B2     1.708756     9A2     1.716821
      14B1     1.776939    10A2     1.863768    27A1     1.906922
      21B2     1.978452    28A1     2.126407    15B1     2.155050
      22B2     2.218096    11A2     2.460104    29A1     2.523026
      16B1     2.604587    23B2     2.629990    30A1     2.653160
      24B2     2.688345    12A2     2.804591    17B1     2.888756
      31A1     2.894911    25B2     3.149956    32A1     3.201161
      13A2     3.251991    33A1     3.273928    26B2     3.285839
      27B2     3.311607    18B1     3.455814    34A1     3.613694
      19B1     3.708984    28B2     3.729304    35A1     3.741037
      14A2     3.741987    20B1     3.819321    36A1     3.846741
      37A1     4.021507    29B2     4.083419    21B1     4.136259
      38A1     4.300176    22B1     4.321403    15A2     4.348320
      30B2     4.379834    16A2     4.423313    39A1     4.548264
      40A1     4.812717    31B2     4.869504    23B1     4.971093
      41A1     5.025536    32B2     5.325781    17A2     5.329327
      33B2     5.599672    42A1     5.642481    18A2     6.353546
      34B2     6.396887    24B1     6.408740    43A1     6.501866
      35B2     7.145153    36B2     7.308440    19A2     7.311389
      25B1     7.356088    44A1     7.360061    20A2     7.420324
      45A1     7.549127    37B2     7.576773    26B1     7.601267
      46A1     8.011897    38B2     8.033948    21A2     8.134654
      47A1     8.180720    48A1     8.295799    27B1     8.335987
      28B1     8.440835    49A1     8.581300    22A2     8.590384
      39B2     8.598293    40B2     8.934633    41B2     9.246261
      29B1     9.314102    23A2     9.368810    50A1     9.383381
      42B2     9.848491    51A1     9.853133    52A1    10.392812
      30B1    10.422471    53A1    10.458065    31B1    10.694509
      43B2    10.765688    24A2    10.795745    54A1    10.861338
      25A2    11.086021    44B2    11.195599    32B1    11.336900
      55A1    11.384824    45B2    11.517489    33B1    11.608351
      56A1    11.872856    57A1    12.042023    34B1    12.152869
      26A2    12.211895    46B2    12.668435    47B2    13.164174
      58A1    13.373021    35B1    13.618125    27A2    13.955045
      59A1    14.012628    48B2    14.378484    60A1    16.080465
      49B2    16.427659    61A1    44.493078

    Beta Occupied:

       1A1   -21.078561     2A1    -1.720381     1B2    -1.157404
       3A1    -1.023309

    Beta Virtual:

       1B1    -0.315544     4A1    -0.176973     2B2    -0.115155
       5A1    -0.069308     6A1    -0.048623     2B1    -0.046995
       3B2    -0.035118     4B2    -0.005371     7A1    -0.003415
       1A2     0.007867     3B1     0.037987     8A1     0.045280
       5B2     0.111582     9A1     0.121117     6B2     0.135200
       7B2     0.231265    10A1     0.237744    11A1     0.279776
       2A2     0.286817     4B1     0.290100    12A1     0.352674
       5B1     0.386223     8B2     0.401465     6B1     0.411161
       3A2     0.414977    13A1     0.432454    14A1     0.442091
       9B2     0.472793    15A1     0.504947    10B2     0.518578
       7B1     0.528914    11B2     0.538173    16A1     0.598649
       4A2     0.610004    12B2     0.698630     5A2     0.828387
      17A1     0.842041     8B1     0.890611    18A1     0.993306
      13B2     1.092357    19A1     1.137653    14B2     1.170623
       9B1     1.171277    20A1     1.206649     6A2     1.220575
      10B1     1.281723    21A1     1.295270    15B2     1.299923
      11B1     1.349188    22A1     1.349780    16B2     1.404978
      23A1     1.408069     7A2     1.410787    12B1     1.452719
      24A1     1.480328    17B2     1.484137    18B2     1.540125
      25A1     1.571010     8A2     1.577036    19B2     1.584157
      13B1     1.633007    26A1     1.703880    20B2     1.714688
       9A2     1.726763    14B1     1.796153    10A2     1.887165
      27A1     1.908832    21B2     1.980182    28A1     2.133932
      22B2     2.222785    15B1     2.233207    11A2     2.462841
      29A1     2.531365    16B1     2.611480    23B2     2.628433
      30A1     2.667149    24B2     2.693251    12A2     2.811666
      17B1     2.899180    31A1     2.899734    25B2     3.150912
      32A1     3.208513    13A2     3.262645    26B2     3.288194
      33A1     3.309841    27B2     3.315295    18B1     3.512909
      34A1     3.638957    19B1     3.734918    28B2     3.760079
      35A1     3.762909    14A2     3.768212    20B1     3.854860
      36A1     3.880872    37A1     4.036542    29B2     4.096102
      21B1     4.152173    38A1     4.320255    22B1     4.367993
      30B2     4.381492    15A2     4.398800    16A2     4.438544
      39A1     4.557502    40A1     4.833286    31B2     4.882736
      23B1     5.014564    41A1     5.039899    32B2     5.336098
      17A2     5.353540    33B2     5.605926    42A1     5.675830
      18A2     6.354365    34B2     6.396699    24B1     6.409872
      43A1     6.502823    35B2     7.146828    36B2     7.313565
      19A2     7.315992    25B1     7.360047    44A1     7.366285
      20A2     7.424058    45A1     7.549416    37B2     7.575033
      26B1     7.605222    46A1     8.013122    38B2     8.034262
      21A2     8.134509    47A1     8.190091    48A1     8.296546
      27B1     8.339458    28B1     8.442340    49A1     8.581591
      22A2     8.593772    39B2     8.597319    40B2     8.933519
      41B2     9.250693    29B1     9.327024    23A2     9.387600
      50A1     9.389987    42B2     9.855109    51A1     9.860676
      52A1    10.417681    30B1    10.460750    53A1    10.489320
      43B2    10.774632    31B1    10.790432    24A2    10.828671
      54A1    10.889794    25A2    11.110653    44B2    11.219487
      32B1    11.374055    55A1    11.437541    45B2    11.575936
      33B1    11.655796    56A1    11.892715    57A1    12.071805
      34B1    12.207932    26A2    12.254704    46B2    12.680424
      47B2    13.169189    58A1    13.401358    35B1    13.668597
      27A2    14.008690    59A1    14.027537    48B2    14.392325
      60A1    16.100996    49B2    16.437706    61A1    44.519742

    Final Occupation by Irrep:
             A1    A2    B1    B2
    DOCC [     3,    0,    0,    1 ]
    SOCC [     0,    0,    1,    0 ]

  Energy converged.

  @UHF Final Energy:   -75.66393962192022

   => Energetics <=

    Nuclear Repulsion Energy =              8.7953071408347405
    One-Electron Energy =                -117.5456818054422712
    Two-Electron Energy =                  33.0864350426873131
    PCM Polarization Energy =               0.0000000000000000
    Total Energy =                        -75.6639396219202212

    Alert: EFP and PCM quantities not currently incorporated into SCF psivars.
  UHF NO Occupations:
  HONO-2 :    1 B2 1.9989852
  HONO-1 :    3 A1 1.9975665
  HONO-0 :    1 B1 1.0000000
  LUNO+0 :    4 A1 0.0024335
  LUNO+1 :    2 B2 0.0010148
  LUNO+2 :    5 A1 0.0005332
  LUNO+3 :    6 A1 0.0000013

Properties will be evaluated at   0.000000,   0.000000,   0.000000 Bohr

Properties computed using the SCF density matrix

  Nuclear Dipole Moment: (a.u.)
     X:     0.0000      Y:     0.0000      Z:     0.9627

  Electronic Dipole Moment: (a.u.)
     X:     0.0000      Y:     0.0000      Z:     0.0032

  Dipole Moment: (a.u.)
     X:     0.0000      Y:     0.0000      Z:     0.9659     Total:     0.9659

  Dipole Moment: (Debye)
     X:     0.0000      Y:     0.0000      Z:     2.4552     Total:     2.4552

*** tstop() called on cqc05 at Thu Aug 20 20:48:48 2020
Module time:
	user time   =      13.68 seconds =       0.23 minutes
	system time =       0.97 seconds =       0.02 minutes
	total time  =         14 seconds =       0.23 minutes
Total time:
	user time   =      13.68 seconds =       0.23 minutes
	system time =       0.97 seconds =       0.02 minutes
	total time  =         14 seconds =       0.23 minutes

*** tstart() called on cqc05
*** at Thu Aug 20 20:48:48 2020

	Wfn Parameters:
	--------------------
	Wavefunction         = CCSD
	Number of irreps     = 4
	Number of MOs        = 172
	Number of active MOs = 171
	AO-Basis             = NONE
	Semicanonical        = false
	Reference            = UHF
	Print Level          = 1

	IRREP	# MOs	# FZDC	# DOCC	# SOCC	# VIRT	# FZVR
	-----	-----	------	------	------	------	------
	 A1	   61	    1	    2	    0	    58	    0
	 A2	   27	    0	    0	    0	    27	    0
	 B1	   35	    0	    0	    1	    34	    0
	 B2	   49	    0	    1	    0	    48	    0
	Transforming integrals...
	IWL integrals will be deleted.
	(OO|OO)...
	Presorting SO-basis two-electron integrals.
	Sorting File: SO Ints (nn|nn) nbuckets = 1
	Transforming the one-electron integrals and constructing Fock matrices
	Starting AA/AB first half-transformation.
	Sorting AA/AB half-transformed integrals.
	Starting BB first half-transformation.
	Sorting BB half-transformed integrals.
	First half integral transformation complete.
	Starting AA second half-transformation.
	Starting AB second half-transformation.
	Starting BB second half-transformation.
	Two-electron integral transformation complete.
	(OO|OV)...
	Starting AA second half-transformation.
	Starting AB second half-transformation.
	Starting BB second half-transformation.
	Two-electron integral transformation complete.
	(OO|VV)...
	Starting AA second half-transformation.
	Starting AB second half-transformation.
	Starting BB second half-transformation.
	Two-electron integral transformation complete.
	(OV|OO)...
	Starting AA/AB first half-transformation.
	Sorting AA/AB half-transformed integrals.
	Starting BB first half-transformation.
	Sorting BB half-transformed integrals.
	First half integral transformation complete.
	Starting AA second half-transformation.
	Starting AB second half-transformation.
	Starting BB second half-transformation.
	Two-electron integral transformation complete.
	(OV|OV)...
	Starting AA second half-transformation.
	Starting AB second half-transformation.
	Starting BB second half-transformation.
	Two-electron integral transformation complete.
	(OV|VV)...
	Starting AA second half-transformation.
	Starting AB second half-transformation.
	Starting BB second half-transformation.
	Two-electron integral transformation complete.
	(VV|OO)...
	Starting AA/AB first half-transformation.
	Sorting AA/AB half-transformed integrals.
	Starting BB first half-transformation.
	Sorting BB half-transformed integrals.
	First half integral transformation complete.
	Starting AA second half-transformation.
	Starting AB second half-transformation.
	Starting BB second half-transformation.
	Two-electron integral transformation complete.
	(VV|OV)...
	Starting AA second half-transformation.
	Starting AB second half-transformation.
	Starting BB second half-transformation.
	Two-electron integral transformation complete.
	(VV|VV)...
	Starting AA second half-transformation.
	Starting AB second half-transformation.
	Starting BB second half-transformation.
	Two-electron integral transformation complete.
	Frozen core energy     =    -61.22446392080076

	Size of irrep 0 of <AB|CD> integrals:     13.638 (MW) /    109.106 (MB)
	Size of irrep 1 of <AB|CD> integrals:     10.227 (MW) /     81.818 (MB)
	Size of irrep 2 of <AB|CD> integrals:     10.680 (MW) /     85.439 (MB)
	Size of irrep 3 of <AB|CD> integrals:     13.705 (MW) /    109.638 (MB)
	Total:                                    48.250 (MW) /    386.001 (MB)

	Size of irrep 0 of <ab|cd> integrals:     13.891 (MW) /    111.124 (MB)
	Size of irrep 1 of <ab|cd> integrals:     10.537 (MW) /     84.292 (MB)
	Size of irrep 2 of <ab|cd> integrals:     11.062 (MW) /     88.498 (MB)
	Size of irrep 3 of <ab|cd> integrals:     13.905 (MW) /    111.244 (MB)
	Total:                                    49.395 (MW) /    395.158 (MB)

	Size of irrep 0 of <Ab|Cd> integrals:     57.563 (MW) /    460.501 (MB)
	Size of irrep 1 of <Ab|Cd> integrals:     41.525 (MW) /    332.201 (MB)
	Size of irrep 2 of <Ab|Cd> integrals:     43.481 (MW) /    347.847 (MB)
	Size of irrep 3 of <Ab|Cd> integrals:     55.220 (MW) /    441.758 (MB)
	Total:                                   197.788 (MW) /   1582.306 (MB)

	Size of irrep 0 of <IA|BC> integrals:      1.495 (MW) /     11.964 (MB)
	Size of irrep 1 of <IA|BC> integrals:      0.870 (MW) /      6.959 (MB)
	Size of irrep 2 of <IA|BC> integrals:      1.000 (MW) /      8.000 (MB)
	Size of irrep 3 of <IA|BC> integrals:      1.340 (MW) /     10.721 (MB)
	Total:                                     4.705 (MW) /     37.644 (MB)

	Size of irrep 0 of <ia|bc> integrals:      1.250 (MW) /     10.000 (MB)
	Size of irrep 1 of <ia|bc> integrals:      0.578 (MW) /      4.622 (MB)
	Size of irrep 2 of <ia|bc> integrals:      0.645 (MW) /      5.162 (MB)
	Size of irrep 3 of <ia|bc> integrals:      1.149 (MW) /      9.188 (MB)
	Total:                                     3.622 (MW) /     28.973 (MB)

	Size of irrep 0 of <Ia|Bc> integrals:      1.510 (MW) /     12.079 (MB)
	Size of irrep 1 of <Ia|Bc> integrals:      0.883 (MW) /      7.063 (MB)
	Size of irrep 2 of <Ia|Bc> integrals:      1.022 (MW) /      8.177 (MB)
	Size of irrep 3 of <Ia|Bc> integrals:      1.345 (MW) /     10.760 (MB)
	Total:                                     4.760 (MW) /     38.078 (MB)

	Size of irrep 0 of <iA|bC> integrals:      1.244 (MW) /      9.954 (MB)
	Size of irrep 1 of <iA|bC> integrals:      0.567 (MW) /      4.537 (MB)
	Size of irrep 2 of <iA|bC> integrals:      0.626 (MW) /      5.011 (MB)
	Size of irrep 3 of <iA|bC> integrals:      1.144 (MW) /      9.155 (MB)
	Total:                                     3.582 (MW) /     28.657 (MB)

	Size of irrep 0 of tIjAb amplitudes:       0.038 (MW) /      0.303 (MB)
	Size of irrep 1 of tIjAb amplitudes:       0.006 (MW) /      0.052 (MB)
	Size of irrep 2 of tIjAb amplitudes:       0.013 (MW) /      0.106 (MB)
	Size of irrep 3 of tIjAb amplitudes:       0.030 (MW) /      0.238 (MB)
	Total:                                     0.087 (MW) /      0.698 (MB)

	Nuclear Rep. energy          =      8.79530714083474
	SCF energy                   =    -75.66393962192022
	One-electron energy          =    -37.29776552428878
	Two-electron (AA) energy     =      3.75281042874698
	Two-electron (BB) energy     =      1.71755329250353
	Two-electron (AB) energy     =      8.59261896108393
	Two-electron energy          =     14.06298268233444
	Reference energy             =    -75.66393962192036

*** tstop() called on cqc05 at Thu Aug 20 20:49:18 2020
Module time:
	user time   =      17.75 seconds =       0.30 minutes
	system time =      10.97 seconds =       0.18 minutes
	total time  =         30 seconds =       0.50 minutes
Total time:
	user time   =      31.43 seconds =       0.52 minutes
	system time =      11.94 seconds =       0.20 minutes
	total time  =         44 seconds =       0.73 minutes

*** tstart() called on cqc05
*** at Thu Aug 20 20:49:18 2020

            **************************
            *                        *
            *        CCENERGY        *
            *                        *
            **************************

    Nuclear Rep. energy (wfn)     =    8.795307140834741
    SCF energy          (wfn)     =  -75.663939621920221
    Reference energy    (file100) =  -75.663939621920363

    Input parameters:
    -----------------
    Wave function   =     CCSD
    Reference wfn   =     UHF
    Brueckner       =     No
    Memory (Mbytes) =     250000.0
    Maxiter         =     50
    R_Convergence   =     1.0e-07
    E_Convergence   =     1.0e-06
    Restart         =     Yes
    DIIS            =     Yes
    AO Basis        =     NONE
    ABCD            =     NEW
    Cache Level     =     2
    Cache Type      =     LRU
    Print Level     =     1
    Num. of threads =     4
    # Amps to Print =     10
    Print MP2 Amps? =     No
    Analyze T2 Amps =     No
    Print Pair Ener =     No
    Local CC        =     No
    SCS-MP2         =     False
    SCSN-MP2        =     False
    SCS-CCSD        =     False

MP2 correlation energy -0.2159544148164352
                Solving CC Amplitude Equations
                ------------------------------
  Iter             Energy              RMS        T1Diag      D1Diag    New D1Diag    D2Diag
  ----     ---------------------    ---------   ----------  ----------  ----------   --------
     0        -0.215954414816437    0.000e+00    0.000000    0.000000    0.000000    0.000000
     1        -0.224399089319412    3.211e-02    0.007293    0.000000    0.000000    0.000000
     2        -0.228872431368368    1.148e-02    0.009142    0.000000    0.000000    0.000000
     3        -0.229433570153339    4.521e-03    0.010353    0.000000    0.000000    0.000000
     4        -0.229409517747899    1.765e-03    0.010602    0.000000    0.000000    0.000000
     5        -0.229440532966243    6.899e-04    0.010649    0.000000    0.000000    0.000000
     6        -0.229448121624058    2.372e-04    0.010628    0.000000    0.000000    0.000000
     7        -0.229448530625060    7.338e-05    0.010619    0.000000    0.000000    0.000000
     8        -0.229448813908092    2.541e-05    0.010618    0.000000    0.000000    0.000000
     9        -0.229448434429863    9.453e-06    0.010618    0.000000    0.000000    0.000000
    10        -0.229448606092910    3.721e-06    0.010618    0.000000    0.000000    0.000000
    11        -0.229448618675834    1.075e-06    0.010618    0.000000    0.000000    0.000000
    12        -0.229448639402810    2.994e-07    0.010618    0.000000    0.000000    0.000000
    13        -0.229448639430024    8.958e-08    0.010618    0.000000    0.000000    0.000000

      * MP2 total energy                      =  -75.879894036736800
      * CCSD total energy                     =  -75.893388261350381
*** Psi4 exiting successfully. Buy a developer a beer!
