                               Psi4 1.2a1.dev939

  ==> Input File <==

--------------------------------------------------------------------------
# Any line starting with the # character is a comment line

memory 32000 mb

molecule molecule {
0 1
N          0.7147735098        0.0593513937        0.0430540470
N         -0.7147735098       -0.0593513937        0.0430540470
H          1.0693082921        0.3150198703       -0.8714981971
H          1.0889697597       -0.8506903245        0.2732035372
H         -1.0889697597        0.8506903245        0.2732035372
H         -1.0693082921       -0.3150198703       -0.8714981971
}

set {
  reference rhf
  basis aug-cc-pv(D+d)z
  scf_type OUT_OF_CORE
  freeze_core true
}

energy('ccsd')
--------------------------------------------------------------------------

    Molecular point group: c2

    Geometry (in Angstrom), charge = 0, multiplicity = 1:

       Center              X                  Y                   Z               Mass
    ------------   -----------------  -----------------  -----------------  -----------------
           N          0.714773509800     0.059351393700     0.043059498649    14.003074004780
           N         -0.714773509800    -0.059351393700     0.043059498649    14.003074004780
           H          1.069308292100     0.315019870300    -0.871492745451     1.007825032070
           H          1.088969759700    -0.850690324500     0.273208988849     1.007825032070
           H         -1.088969759700     0.850690324500     0.273208988849     1.007825032070
           H         -1.069308292100    -0.315019870300    -0.871492745451     1.007825032070

  Charge       = 0
  Multiplicity = 1
  Basis Set: AUG-CC-PV(D+D)Z
    Blend: AUG-CC-PV(D+D)Z

    Orbital Energies (a.u.)
    -----------------------

    Doubly Occupied:

       1A    -15.578425     1B    -15.577977     2A     -1.258400
       2B     -1.013252     3A     -0.678201     3B     -0.668683
       4A     -0.607171     4B     -0.416947     5A     -0.409929

  @RHF Final Energy:  -111.20110762744993

   => Energetics <=

    Nuclear Repulsion Energy =             41.5843298751571666
    One-Electron Energy =                -233.1529026052843108
    Two-Electron Energy =                  80.3674651026772011
    Total Energy =                       -111.2011076274499288
      * MP2 total energy                      = -111.573184990406006
      * CCSD total energy                     = -111.596372534771177
*** Psi4 exiting successfully. Buy a developer a beer!
