                               Psi4 1.4a3.dev88

  ==> Input File <==

--------------------------------------------------------------------------
# Any line starting with the # character is a comment line
memory 250000 mb
molecule molecule{
0 2
Al          0.0000000000        0.0000000000        0.0000000000
}

set {
  reference uhf
  basis aug-cc-pV(d+d)Z
  scf_type OUT_OF_CORE
  freeze_core true
}

energy('ccsd(t)')
--------------------------------------------------------------------------

    Molecular point group: d2h
    Geometry (in Angstrom), charge = 0, multiplicity = 2:

       Center              X                  Y                   Z               Mass
    ------------   -----------------  -----------------  -----------------  -----------------
         AL           0.000000000000     0.000000000000     0.000000000000    26.981538530000

  Charge       = 0
  Multiplicity = 2
  Basis Set: AUG-CC-PV(D+D)Z
    Blend: AUG-CC-PV(D+D)Z

    Orbital Energies [Eh]
    ---------------------

    Alpha Occupied:

       1Ag   -58.502101     2Ag    -4.911540     1B2u   -3.224573
       1B1u   -3.219012     1B3u   -3.219012     3Ag    -0.426210
       2B2u   -0.217497

    Alpha Virtual:

       2B1u    0.009982     2B3u    0.009982     3B2u    0.050324
       4Ag     0.052310     3B3u    0.067552     3B1u    0.067552
       5Ag     0.148584     1B1g    0.149286     1B3g    0.149286
       1B2g    0.155479     6Ag     0.155479     4B2u    0.380622
       7Ag     0.395109     4B3u    0.403854     4B1u    0.403854
       8Ag     0.498204     2B1g    0.500009     2B3g    0.500009
       2B2g    0.509099     9Ag     0.509099     3B2g    2.424749
      10Ag     2.424749     3B3g    2.434860     3B1g    2.434860
      11Ag     2.438203

    Beta Occupied:

       1Ag   -58.499442     2Ag    -4.908100     1B3u   -3.217645
       1B1u   -3.217645     1B2u   -3.208145     3Ag    -0.364411

    Beta Virtual:

       2B1u    0.014968     2B3u    0.014968     2B2u    0.032238
       4Ag     0.057505     3B3u    0.071528     3B1u    0.071528
       3B2u    0.100623     1B2g    0.157087     5Ag     0.157087
       1B3g    0.172198     1B1g    0.172198     6Ag     0.177813
       4B3u    0.407503     4B1u    0.407503     7Ag     0.408885
       4B2u    0.439594     2B2g    0.510049     8Ag     0.510049
       2B3g    0.537981     2B1g    0.537981     9Ag     0.548890
      10Ag     2.424728     3B2g    2.424728     3B1g    2.440825
       3B3g    2.440825    11Ag     2.446220

    Final Occupation by Irrep:
             Ag   B1g   B2g   B3g    Au   B1u   B2u   B3u
    DOCC [     3,    0,    0,    0,    0,    1,    1,    1 ]
    SOCC [     0,    0,    0,    0,    0,    0,    1,    0 ]

  @UHF Final Energy:  -241.87428533568169

   => Energetics <=

    Nuclear Repulsion Energy =              0.0000000000000000
    One-Electron Energy =                -336.6132360685934373
    Two-Electron Energy =                  94.7389507329117606
    Total Energy =                       -241.8742853356816909

  UHF NO Occupations:
  HONO-2 :    1B2u 1.9999997
  HONO-1 :    3 Ag 1.9902823
  HONO-0 :    2B2u 1.0000000
  LUNO+0 :    4 Ag 0.0097177
  LUNO+1 :    3B2u 0.0000003
  LUNO+2 :    5 Ag 0.0000000
  LUNO+3 :    2B1u 0.0000000

Computation Completed

Properties will be evaluated at   0.000000,   0.000000,   0.000000 [a0]

Properties computed using the SCF density matrix

  Nuclear Dipole Moment: [e a0]
     X:     0.0000      Y:     0.0000      Z:     0.0000

  Electronic Dipole Moment: [e a0]
     X:     0.0000      Y:     0.0000      Z:     0.0000

  Dipole Moment: [e a0]
     X:     0.0000      Y:     0.0000      Z:     0.0000     Total:     0.0000

  Dipole Moment: [D]
     X:     0.0000      Y:     0.0000      Z:     0.0000     Total:     0.0000

*** tstop() called on n412-039.vsc4.prov at Tue Jan 26 18:14:23 2021
Module time:
	user time   =       7.44 seconds =       0.12 minutes
	system time =       0.63 seconds =       0.01 minutes
	total time  =          2 seconds =       0.03 minutes
Total time:
	user time   =       7.44 seconds =       0.12 minutes
	system time =       0.63 seconds =       0.01 minutes
	total time  =          2 seconds =       0.03 minutes

*** tstart() called on n412-039.vsc4.prov
*** at Tue Jan 26 18:14:23 2021

	Wfn Parameters:
	--------------------
	Wavefunction         = CCSD_T
	Number of irreps     = 8
	Number of MOs        = 32
	Number of active MOs = 27
	AO-Basis             = NONE
	Semicanonical        = false
	Reference            = UHF
	Print Level          = 1

	IRREP	# MOs	# FZDC	# DOCC	# SOCC	# VIRT	# FZVR
	-----	-----	------	------	------	------	------
	 Ag	   11	    2	    1	    0	    8	    0
	 B1g	   3	    0	    0	    0	    3	    0
	 B2g	   3	    0	    0	    0	    3	    0
	 B3g	   3	    0	    0	    0	    3	    0
	 Au	   0	    0	    0	    0	    0	    0
	 B1u	   4	    1	    0	    0	    3	    0
	 B2u	   4	    1	    0	    1	    2	    0
	 B3u	   4	    1	    0	    0	    3	    0
	Transforming integrals...
	IWL integrals will be deleted.
	(OO|OO)...
	Presorting SO-basis two-electron integrals.
	Sorting File: SO Ints (nn|nn) nbuckets = 1
	Constructing frozen core operators
	Starting AA/AB first half-transformation.
	Sorting AA/AB half-transformed integrals.
	Starting BB first half-transformation.
	Sorting BB half-transformed integrals.
	First half integral transformation complete.
	Starting AA second half-transformation.
	Starting AB second half-transformation.
	Starting BB second half-transformation.
	Two-electron integral transformation complete.
	(OO|OV)...
	Starting AA second half-transformation.
	Starting AB second half-transformation.
	Starting BB second half-transformation.
	Two-electron integral transformation complete.
	(OO|VV)...
	Starting AA second half-transformation.
	Starting AB second half-transformation.
	Starting BB second half-transformation.
	Two-electron integral transformation complete.
	(OV|OO)...
	Starting AA/AB first half-transformation.
	Sorting AA/AB half-transformed integrals.
	Starting BB first half-transformation.
	Sorting BB half-transformed integrals.
	First half integral transformation complete.
	Starting AA second half-transformation.
	Starting AB second half-transformation.
	Starting BB second half-transformation.
	Two-electron integral transformation complete.
	(OV|OV)...
	Starting AA second half-transformation.
	Starting AB second half-transformation.
	Starting BB second half-transformation.
	Two-electron integral transformation complete.
	(OV|VV)...
	Starting AA second half-transformation.
	Starting AB second half-transformation.
	Starting BB second half-transformation.
	Two-electron integral transformation complete.
	(VV|OO)...
	Starting AA/AB first half-transformation.
	Sorting AA/AB half-transformed integrals.
	Starting BB first half-transformation.
	Sorting BB half-transformed integrals.
	First half integral transformation complete.
	Starting AA second half-transformation.
	Starting AB second half-transformation.
	Starting BB second half-transformation.
	Two-electron integral transformation complete.
	(VV|OV)...
	Starting AA second half-transformation.
	Starting AB second half-transformation.
	Starting BB second half-transformation.
	Two-electron integral transformation complete.
	(VV|VV)...
	Starting AA second half-transformation.
	Starting AB second half-transformation.
	Starting BB second half-transformation.
	Two-electron integral transformation complete.
	Frozen core energy     =   -239.99258077585878

	Size of irrep 0 of <AB|CD> integrals:      0.002 (MW) /      0.015 (MB)
	Size of irrep 1 of <AB|CD> integrals:      0.002 (MW) /      0.012 (MB)
	Size of irrep 2 of <AB|CD> integrals:      0.002 (MW) /      0.014 (MB)
	Size of irrep 3 of <AB|CD> integrals:      0.002 (MW) /      0.012 (MB)
	Size of irrep 4 of <AB|CD> integrals:      0.001 (MW) /      0.005 (MB)
	Size of irrep 5 of <AB|CD> integrals:      0.002 (MW) /      0.012 (MB)
	Size of irrep 6 of <AB|CD> integrals:      0.001 (MW) /      0.009 (MB)
	Size of irrep 7 of <AB|CD> integrals:      0.002 (MW) /      0.012 (MB)
	Total:                                     0.012 (MW) /      0.092 (MB)

	Size of irrep 0 of <ab|cd> integrals:      0.002 (MW) /      0.017 (MB)
	Size of irrep 1 of <ab|cd> integrals:      0.002 (MW) /      0.014 (MB)
	Size of irrep 2 of <ab|cd> integrals:      0.002 (MW) /      0.014 (MB)
	Size of irrep 3 of <ab|cd> integrals:      0.002 (MW) /      0.014 (MB)
	Size of irrep 4 of <ab|cd> integrals:      0.001 (MW) /      0.006 (MB)
	Size of irrep 5 of <ab|cd> integrals:      0.002 (MW) /      0.014 (MB)
	Size of irrep 6 of <ab|cd> integrals:      0.002 (MW) /      0.014 (MB)
	Size of irrep 7 of <ab|cd> integrals:      0.002 (MW) /      0.014 (MB)
	Total:                                     0.013 (MW) /      0.107 (MB)

	Size of irrep 0 of <Ab|Cd> integrals:      0.013 (MW) /      0.106 (MB)
	Size of irrep 1 of <Ab|Cd> integrals:      0.007 (MW) /      0.052 (MB)
	Size of irrep 2 of <Ab|Cd> integrals:      0.007 (MW) /      0.056 (MB)
	Size of irrep 3 of <Ab|Cd> integrals:      0.007 (MW) /      0.052 (MB)
	Size of irrep 4 of <Ab|Cd> integrals:      0.003 (MW) /      0.021 (MB)
	Size of irrep 5 of <Ab|Cd> integrals:      0.007 (MW) /      0.052 (MB)
	Size of irrep 6 of <Ab|Cd> integrals:      0.006 (MW) /      0.046 (MB)
	Size of irrep 7 of <Ab|Cd> integrals:      0.007 (MW) /      0.052 (MB)
	Total:                                     0.055 (MW) /      0.439 (MB)

	Size of irrep 0 of <IA|BC> integrals:      0.001 (MW) /      0.009 (MB)
	Size of irrep 1 of <IA|BC> integrals:      0.000 (MW) /      0.004 (MB)
	Size of irrep 2 of <IA|BC> integrals:      0.000 (MW) /      0.002 (MB)
	Size of irrep 3 of <IA|BC> integrals:      0.000 (MW) /      0.004 (MB)
	Size of irrep 4 of <IA|BC> integrals:      0.000 (MW) /      0.001 (MB)
	Size of irrep 5 of <IA|BC> integrals:      0.000 (MW) /      0.004 (MB)
	Size of irrep 6 of <IA|BC> integrals:      0.001 (MW) /      0.005 (MB)
	Size of irrep 7 of <IA|BC> integrals:      0.000 (MW) /      0.004 (MB)
	Total:                                     0.004 (MW) /      0.033 (MB)

	Size of irrep 0 of <ia|bc> integrals:      0.001 (MW) /      0.008 (MB)
	Size of irrep 1 of <ia|bc> integrals:      0.000 (MW) /      0.002 (MB)
	Size of irrep 2 of <ia|bc> integrals:      0.000 (MW) /      0.002 (MB)
	Size of irrep 3 of <ia|bc> integrals:      0.000 (MW) /      0.002 (MB)
	Size of irrep 4 of <ia|bc> integrals:      0.000 (MW) /      0.000 (MB)
	Size of irrep 5 of <ia|bc> integrals:      0.000 (MW) /      0.002 (MB)
	Size of irrep 6 of <ia|bc> integrals:      0.000 (MW) /      0.002 (MB)
	Size of irrep 7 of <ia|bc> integrals:      0.000 (MW) /      0.002 (MB)
	Total:                                     0.002 (MW) /      0.020 (MB)

	Size of irrep 0 of <Ia|Bc> integrals:      0.001 (MW) /      0.010 (MB)
	Size of irrep 1 of <Ia|Bc> integrals:      0.000 (MW) /      0.004 (MB)
	Size of irrep 2 of <Ia|Bc> integrals:      0.000 (MW) /      0.002 (MB)
	Size of irrep 3 of <Ia|Bc> integrals:      0.000 (MW) /      0.004 (MB)
	Size of irrep 4 of <Ia|Bc> integrals:      0.000 (MW) /      0.001 (MB)
	Size of irrep 5 of <Ia|Bc> integrals:      0.000 (MW) /      0.004 (MB)
	Size of irrep 6 of <Ia|Bc> integrals:      0.001 (MW) /      0.007 (MB)
	Size of irrep 7 of <Ia|Bc> integrals:      0.000 (MW) /      0.004 (MB)
	Total:                                     0.004 (MW) /      0.036 (MB)

	Size of irrep 0 of <iA|bC> integrals:      0.001 (MW) /      0.007 (MB)
	Size of irrep 1 of <iA|bC> integrals:      0.000 (MW) /      0.002 (MB)
	Size of irrep 2 of <iA|bC> integrals:      0.000 (MW) /      0.002 (MB)
	Size of irrep 3 of <iA|bC> integrals:      0.000 (MW) /      0.002 (MB)
	Size of irrep 4 of <iA|bC> integrals:      0.000 (MW) /      0.000 (MB)
	Size of irrep 5 of <iA|bC> integrals:      0.000 (MW) /      0.002 (MB)
	Size of irrep 6 of <iA|bC> integrals:      0.000 (MW) /      0.001 (MB)
	Size of irrep 7 of <iA|bC> integrals:      0.000 (MW) /      0.002 (MB)
	Total:                                     0.002 (MW) /      0.018 (MB)

	Size of irrep 0 of tIjAb amplitudes:       0.000 (MW) /      0.001 (MB)
	Size of irrep 1 of tIjAb amplitudes:       0.000 (MW) /      0.000 (MB)
	Size of irrep 2 of tIjAb amplitudes:       0.000 (MW) /      0.000 (MB)
	Size of irrep 3 of tIjAb amplitudes:       0.000 (MW) /      0.000 (MB)
	Size of irrep 4 of tIjAb amplitudes:       0.000 (MW) /      0.000 (MB)
	Size of irrep 5 of tIjAb amplitudes:       0.000 (MW) /      0.000 (MB)
	Size of irrep 6 of tIjAb amplitudes:       0.000 (MW) /      0.001 (MB)
	Size of irrep 7 of tIjAb amplitudes:       0.000 (MW) /      0.000 (MB)
	Total:                                     0.000 (MW) /      0.002 (MB)

	Nuclear Rep. energy          =      0.00000000000000
	SCF energy                   =   -241.87428533568169
	One-electron energy          =     -2.75529131320774
	Two-electron (AA) energy     =      0.23081975690744
	Two-electron (BB) energy     =      0.00000000000000
	Two-electron (AB) energy     =      0.64276699647748
	Two-electron energy          =      0.87358675338492
	Reference energy             =   -241.87428533568161

*** tstop() called on n412-039.vsc4.prov at Tue Jan 26 18:14:24 2021
Module time:
	user time   =       0.04 seconds =       0.00 minutes
	system time =       0.08 seconds =       0.00 minutes
	total time  =          1 seconds =       0.02 minutes
Total time:
	user time   =       7.48 seconds =       0.12 minutes
	system time =       0.71 seconds =       0.01 minutes
	total time  =          3 seconds =       0.05 minutes
            **************************
            *                        *
            *        CCENERGY        *
            *                        *
            **************************

    Nuclear Rep. energy (wfn)     =    0.000000000000000
    SCF energy          (wfn)     = -241.874285335681691
    Reference energy    (file100) = -241.874285335681606

    Input parameters:
    -----------------
    Wave function   =     CCSD_T
    Reference wfn   =     UHF
    Brueckner       =     No
    Memory (Mbytes) =     250000.0
    Maxiter         =     50
    R_Convergence   =     1.0e-07
    E_Convergence   =     1.0e-06
    Restart         =     Yes
    DIIS            =     Yes
    AO Basis        =     NONE
    ABCD            =     NEW
    Cache Level     =     2
    Cache Type      =     LRU
    Print Level     =     1
    Num. of threads =     48
    # Amps to Print =     10
    Print MP2 Amps? =     No
    Analyze T2 Amps =     No
    Print Pair Ener =     No
    Local CC        =     No
    SCS-MP2         =     False
    SCSN-MP2        =     False
    SCS-CCSD        =     False

MP2 correlation energy -0.0313575600277178
                Solving CC Amplitude Equations
                ------------------------------
  Iter             Energy              RMS        T1Diag      D1Diag    New D1Diag    D2Diag
  ----     ---------------------    ---------   ----------  ----------  ----------   --------
     0        -0.031357560027718    0.000e+00    0.000000    0.000000    0.000000    0.000000
     1        -0.041655231682549    6.441e-02    0.010200    0.000000    0.000000    0.000000
     2        -0.047897289401922    2.919e-02    0.021612    0.000000    0.000000    0.000000
     3        -0.048160548373061    6.474e-03    0.024580    0.000000    0.000000    0.000000
     4        -0.048340699358145    1.464e-03    0.024970    0.000000    0.000000    0.000000
     5        -0.048278699399393    2.862e-04    0.024859    0.000000    0.000000    0.000000
     6        -0.048300429387607    9.356e-05    0.024896    0.000000    0.000000    0.000000
     7        -0.048294241260415    3.150e-05    0.024887    0.000000    0.000000    0.000000
     8        -0.048294434293510    4.331e-06    0.024888    0.000000    0.000000    0.000000
     9        -0.048294620693458    1.343e-06    0.024889    0.000000    0.000000    0.000000
    10        -0.048294626223559    3.619e-07    0.024889    0.000000    0.000000    0.000000
    11        -0.048294625730784    8.289e-08    0.024889    0.000000    0.000000    0.000000

    Iterations converged.

    Largest TIA Amplitudes:
              0   1        -0.0316765758
              0   4        -0.0221318150
              0   0         0.0117623724
              0   3        -0.0089212926
              1  21         0.0048132983
              1  20        -0.0032393636
              0   7         0.0003767219

    Largest Tia Amplitudes:
              0   0        -0.0083162419
              0   2         0.0051407482
              0   3         0.0031243252
              0   5         0.0028335868
              0   7         0.0000393814

    Largest TIJAB Amplitudes:
      1   0  21   3         0.0203693153
      1   0  17  14         0.0173204091
      1   0  22   8         0.0173204091
      1   0  23   8         0.0157818510
      1   0  18  14         0.0157818509
      1   0  21   0        -0.0135967596
      1   0  23   9         0.0113741671
      1   0  18  15         0.0113741671
      1   0  17  15         0.0112819782
      1   0  22   9         0.0112819782

    Largest TIjAb Amplitudes:
      0   0  22  24         0.0603212567
      0   0  17  18         0.0603212567
      0   0  17  17         0.0576388285
      0   0  22  23         0.0576388284
      1   0   1  21        -0.0568021816
      0   0  23  24         0.0549929005
      0   0  18  18         0.0549929004
      0   0  18  17         0.0521968869
      0   0  23  23         0.0521968869
      1   0   4  21        -0.0508563850

    SCF energy       (wfn)                    = -241.874285335681691
    Reference energy (file100)                = -241.874285335681606

    Opposite-spin MP2 correlation energy      =   -0.029122526605334
    Same-spin MP2 correlation energy          =   -0.002235033422384
    Singles MP2 correlation energy            =   -0.000000000000000
    MP2 correlation energy                    =   -0.031357560027718
      * MP2 total energy                      = -241.905642895709320

    Opposite-spin CCSD correlation energy     =   -0.045616975878252
    Same-spin CCSD correlation energy         =   -0.002677649852532
    Singles CCSD correlation energy           =   -0.000000000000000
    CCSD correlation energy                   =   -0.048294625730784
      * CCSD total energy                     = -241.922579961412396

            **************************
            *                        *
            *        CCTRIPLES       *
            *                        *
            **************************

      * CCSD(T) total energy                     = -241.923397997231945
*** Psi4 exiting successfully. Buy a developer a beer!
