                               Psi4 1.2a1.dev939

  ==> Input File <==

--------------------------------------------------------------------------
# Any line starting with the # character is a comment line
memory 250000 mb
molecule molecule{
-1 2
Si         0.0000000000        0.0000000000        0.0709756627
H          0.0000000000        1.1144526690       -0.9888420813
H          0.0000000000       -1.1144526690       -0.9888420813
}

set {
  reference uhf
  basis aug-cc-pv(6+d)z
  scf_type OUT_OF_CORE
  freeze_core true
}

energy('ccsd')
--------------------------------------------------------------------------

    Molecular point group: c2v

    Geometry (in Angstrom), charge = -1, multiplicity = 2:

       Center              X                  Y                   Z               Mass
    ------------   -----------------  -----------------  -----------------  -----------------
          SI          0.000000000000     0.000000000000     0.071225014523    27.976926532460
           H         -0.000000000000     1.114452669000    -0.988592729477     1.007825032070
           H          0.000000000000    -1.114452669000    -0.988592729477     1.007825032070

  Charge       = -1
  Multiplicity = 2
  Basis Set: AUG-CC-PV(6+D)Z
    Blend: AUG-CC-PV(6+D)Z

    Orbital Energies (a.u.)
    -----------------------

    Alpha Occupied:

       1A1   -68.537768     2A1    -5.883006     1B1    -3.994031
       1B2    -3.985745     3A1    -3.984656     4A1    -0.452329
       2B2    -0.227574     5A1    -0.112575     2B1    -0.047474

    Alpha Virtual:

       6A1     0.119908     3B2     0.133163     7A1     0.134497
       4B2     0.141840     3B1     0.145144     8A1     0.209866
       9A1     0.220465     1A2     0.221700     4B1     0.224467
      10A1     0.231686     5B2     0.256625     6B2     0.266685
      11A1     0.276667     7B2     0.315102    12A1     0.315597
       5B1     0.326887     2A2     0.337424     8B2     0.346372
      13A1     0.352349     6B1     0.357077     7B1     0.404014
      14A1     0.414236    15A1     0.421003     3A2     0.430687
       9B2     0.433554    16A1     0.438690     8B1     0.438838
      10B2     0.442250    11B2     0.458914    17A1     0.464307
      12B2     0.497482    18A1     0.517005     9B1     0.536402
       4A2     0.543124    19A1     0.558844    20A1     0.602815
      13B2     0.616353    21A1     0.651620     5A2     0.654161
      14B2     0.655915    10B1     0.660034     6A2     0.668810
      11B1     0.676506    22A1     0.690708    15B2     0.726658
      23A1     0.746509    16B2     0.748772    12B1     0.756872
      24A1     0.761021    13B1     0.783690     7A2     0.793459
      25A1     0.809620    17B2     0.819723    14B1     0.822337
       8A2     0.824383    18B2     0.834430    26A1     0.834653
       9A2     0.866793    27A1     0.877853    19B2     0.883845
      15B1     0.896158    28A1     0.902691    20B2     0.912613
      29A1     0.930507    30A1     0.949308    16B1     0.971920
      10A2     0.982202    21B2     0.995725    31A1     1.002069
      17B1     1.006595    22B2     1.069850    32A1     1.083932
      23B2     1.183543    11A2     1.222411    18B1     1.232810
      24B2     1.270549    33A1     1.271080    12A2     1.312586
      19B1     1.319783    34A1     1.325748    35A1     1.346314
      25B2     1.376556    20B1     1.378854    36A1     1.404392
      26B2     1.412153    21B1     1.430047    13A2     1.444571
      37A1     1.454562    27B2     1.467929    38A1     1.482545
      28B2     1.502449    14A2     1.545347    29B2     1.578070
      39A1     1.589506    22B1     1.615466    40A1     1.624059
      23B1     1.628799    15A2     1.638885    24B1     1.670181
      30B2     1.673327    41A1     1.679185    16A2     1.680974
      31B2     1.694164    25B1     1.699832    42A1     1.708085
      17A2     1.710942    32B2     1.711466    43A1     1.716654
      44A1     1.746891    33B2     1.746939    18A2     1.762652
      45A1     1.768188    26B1     1.783736    19A2     1.807661
      27B1     1.810522    28B1     1.831942    46A1     1.839652
      34B2     1.845054    47A1     1.856275    29B1     1.860352
      35B2     1.881118    48A1     1.947517    36B2     2.019253
      20A2     2.115540    37B2     2.129784    49A1     2.157351
      30B1     2.179790    38B2     2.193252    50A1     2.265748
      39B2     2.384144    51A1     2.388467    31B1     2.404827
      21A2     2.413065    22A2     2.418447    52A1     2.439951
      40B2     2.466273    53A1     2.471581    32B1     2.484616
      41B2     2.519832    33B1     2.587080    54A1     2.612937
      55A1     2.675737    23A2     2.677958    42B2     2.773162
      24A2     2.781807    34B1     2.800131    56A1     2.807958
      57A1     2.833994    25A2     2.849847    43B2     2.853099
      35B1     2.853143    44B2     2.875885    58A1     2.918475
      26A2     2.919805    36B1     2.929203    45B2     2.938229
      37B1     2.960985    46B2     3.025640    59A1     3.034524
      47B2     3.057219    60A1     3.066002    61A1     3.103134
      38B1     3.126659    27A2     3.143565    48B2     3.147963
      39B1     3.174365    62A1     3.175131    63A1     3.191765
      28A2     3.217069    49B2     3.226180    64A1     3.278981
      40B1     3.286304    29A2     3.289096    41B1     3.311546
      50B2     3.314756    30A2     3.322192    65A1     3.341150
      51B2     3.345815    66A1     3.365125    42B1     3.370811
      31A2     3.382032    52B2     3.394951    67A1     3.423502
      32A2     3.428175    43B1     3.432628    53B2     3.462225
      68A1     3.487069    44B1     3.489303    54B2     3.581829
      69A1     3.597445    33A2     3.597745    45B1     3.597798
      55B2     3.610701    70A1     3.618673    56B2     3.729014
      34A2     3.755833    46B1     3.757043    71A1     3.765725
      72A1     3.847859    73A1     3.898412    35A2     3.903401
      57B2     3.936102    47B1     3.952941    74A1     4.038915
      58B2     4.047289    48B1     4.138231    36A2     4.201089
      59B2     4.207091    75A1     4.225332    37A2     4.309545
      60B2     4.377070    49B1     4.475314    76A1     4.476716
      50B1     4.577407    77A1     4.579035    61B2     4.612574
      78A1     4.637329    51B1     4.665862    62B2     4.695046
      38A2     4.719123    79A1     4.727255    63B2     4.813697
      80A1     4.876829    52B1     4.916479    64B2     4.921405
      39A2     4.933614    40A2     5.097264    53B1     5.146979
      81A1     5.155733    65B2     5.198761    82A1     5.229398
      66B2     5.244537    54B1     5.254896    41A2     5.268583
      83A1     5.290028    42A2     5.309903    67B2     5.319672
      84A1     5.338426    55B1     5.403144    68B2     5.433817
      85A1     5.484480    43A2     5.495044    56B1     5.533019
      69B2     5.543169    70B2     5.589044    86A1     5.599883
      57B1     5.617673    58B1     5.665856    87A1     5.673366
      71B2     5.705945    44A2     5.707546    88A1     5.739844
      45A2     5.799422    72B2     5.887814    89A1     5.898009
      59B1     5.928607    46A2     6.063314    90A1     6.144160
      91A1     6.173384    73B2     6.184776    60B1     6.242340
      47A2     6.264364    92A1     6.285431    74B2     6.286310
      61B1     6.302893    48A2     6.359020    75B2     6.365723
      93A1     6.419444    49A2     6.449865    94A1     6.467752
      95A1     6.492235    62B1     6.497584    76B2     6.502044
      63B1     6.535916    77B2     6.597941    50A2     6.606407
      96A1     6.634751    64B1     6.643901    78B2     6.701330
      97A1     6.733372    51A2     6.759203    65B1     6.764212
      79B2     6.801266    98A1     6.818379    66B1     6.820526
      80B2     6.829576    99A1     6.875330    52A2     6.920602
      67B1     6.924200    53A2     6.940469   100A1     6.964448
      68B1     7.029875    54A2     7.035946    81B2     7.038495
      82B2     7.131925   101A1     7.197459    83B2     7.274466
     102A1     7.351522    69B1     7.414125    84B2     7.436662
     103A1     7.457123    70B1     7.491196    55A2     7.506137
     104A1     7.528069    85B2     7.708675    71B1     7.811171
      86B2     7.868984   105A1     7.879734    56A2     7.880266
      87B2     8.046949   106A1     8.112553    88B2     8.266752
      57A2     8.283151    72B1     8.314299   107A1     8.416047
      73B1     8.476177   108A1     8.525899    58A2     8.578055
      89B2     8.640094   109A1     8.839450   110A1     9.054256
      90B2     9.069394    74B1     9.182144    59A2     9.253154
      91B2     9.400255   111A1     9.460481    75B1     9.600617
      60A2     9.606024    92B2     9.613563   112A1     9.822810
      93B2     9.946216    61A2    10.027860    76B1    10.099226
      94B2    10.101244   113A1    10.147283   114A1    10.260731
      62A2    10.273296    77B1    10.349816   115A1    10.439549
      95B2    10.461827    63A2    11.017915    78B1    11.023452
      64A2    11.039927    96B2    11.042895    79B1    11.062011
     116A1    11.126805    97B2    11.174083   117A1    11.263175
      80B1    11.364630    98B2    11.433293   118A1    11.529338
      65A2    11.628328   119A1    11.735229    99B2    11.843306
     100B2    12.104380   120A1    12.377452    81B1    14.059484
      66A2    14.073138   101B2    14.218484   121A1    14.222433
     102B2    15.095833   122A1    15.131133    82B1    17.787285
     123A1    17.791244   103B2    17.825942    67A2    17.836979
      83B1    17.872676   124A1    17.927686   104B2    17.969925
      84B1    17.979946    68A2    18.008330   125A1    18.011249
      85B1    18.025690   126A1    18.037016   105B2    18.038639
      69A2    18.099494   106B2    18.107091    70A2    18.127156
     127A1    18.203162   107B2    18.218271    71A2    18.287767
      86B1    18.290768   128A1    18.345541   108B2    18.449084
      87B1    19.518716   129A1    19.545697    72A2    19.602166
     130A1    19.791250   109B2    20.497870    88B1    20.627304
     131A1    20.630075    73A2    20.648600   110B2    20.653517
     111B2    20.826000    74A2    20.834294    89B1    20.856895
     132A1    20.915045    90B1    20.931036    91B1    21.176278
      75A2    21.221335   133A1    21.240575   112B2    21.276968
     134A1    21.451834   113B2    21.633516    76A2    21.658645
     135A1    21.739196    92B1    21.922135   114B2    21.959297
     136A1    21.979526   115B2    22.317518    93B1    23.258029
     116B2    23.359163    77A2    23.373065   137A1    23.386532
     138A1    23.721371   117B2    23.881221    78A2    24.151743
      79A2    24.178130   118B2    24.198602    94B1    24.200104
     139A1    24.302803   140A1    24.342021    95B1    24.399109
     119B2    24.617386   141A1    24.727423    80A2    24.880447
      96B1    24.896787   120B2    24.905989    81A2    24.909585
      97B1    24.919994   121B2    24.955861   142A1    24.995403
     143A1    25.052073   122B2    25.080067   144A1    25.995855
     123B2    26.461362    98B1    35.319095    82A2    35.330232
     145A1    35.438588   124B2    35.450414   125B2    36.202036
     146A1    36.238881   147A1   184.253705

    Beta Occupied:

       1A1   -68.533921     2A1    -5.878484     3A1    -3.983310
       1B2    -3.983278     1B1    -3.975144     4A1    -0.412697
       2B2    -0.225427     5A1    -0.093379

    Beta Virtual:

       6A1     0.120903     3B2     0.133435     7A1     0.134975
       2B1     0.140095     4B2     0.141906     8A1     0.210305
       1A2     0.226537     9A1     0.227308     3B1     0.227705
      10A1     0.237093     4B1     0.249965     5B2     0.256947
       6B2     0.267974    11A1     0.282357     7B2     0.317076
      12A1     0.318289     2A2     0.342585     5B1     0.347927
       8B2     0.348293    13A1     0.353905     6B1     0.395459
       7B1     0.407895    14A1     0.416427    15A1     0.429847
       9B2     0.433325    16A1     0.444918     3A2     0.444980
      10B2     0.447228     8B1     0.454714    11B2     0.460232
      17A1     0.497595    12B2     0.499607    18A1     0.522266
       9B1     0.560807    19A1     0.562612     4A2     0.563698
      20A1     0.608807    13B2     0.619354    21A1     0.655604
       5A2     0.656955    14B2     0.658916    10B1     0.663411
       6A2     0.673086    11B1     0.682477    22A1     0.693548
      15B2     0.727175    16B2     0.750488    23A1     0.754077
      24A1     0.763528    12B1     0.779670    13B1     0.790115
       7A2     0.800292    25A1     0.813946    17B2     0.821321
       8A2     0.828041    14B1     0.834701    26A1     0.835065
      18B2     0.837156     9A2     0.885184    27A1     0.886809
      19B2     0.890011    20B2     0.913816    28A1     0.916521
      15B1     0.921663    29A1     0.932177    30A1     0.962394
      16B1     0.992387    10A2     0.994028    21B2     1.002373
      31A1     1.011409    17B1     1.017117    22B2     1.076634
      32A1     1.090842    23B2     1.183885    11A2     1.229576
      18B1     1.239667    33A1     1.272151    24B2     1.273113
      12A2     1.314874    19B1     1.323425    34A1     1.329362
      35A1     1.350258    25B2     1.377478    20B1     1.382033
      36A1     1.407197    26B2     1.413211    21B1     1.439826
      13A2     1.452135    37A1     1.461238    27B2     1.470214
      38A1     1.489512    28B2     1.503146    14A2     1.548160
      29B2     1.581968    39A1     1.591952    22B1     1.622866
      40A1     1.631312    23B1     1.638113    15A2     1.649467
      24B1     1.676856    30B2     1.677969    41A1     1.686290
      16A2     1.686374    31B2     1.698455    25B1     1.706025
      42A1     1.711560    32B2     1.716842    17A2     1.717104
      43A1     1.725583    44A1     1.752054    33B2     1.755818
      18A2     1.768327    45A1     1.773610    26B1     1.792942
      19A2     1.818662    27B1     1.826636    28B1     1.844692
      34B2     1.845728    46A1     1.852803    47A1     1.858935
      29B1     1.880191    35B2     1.888228    48A1     1.950669
      36B2     2.021988    20A2     2.121583    37B2     2.131343
      49A1     2.157915    30B1     2.188953    38B2     2.194547
      50A1     2.269385    39B2     2.384455    51A1     2.389191
      31B1     2.409543    21A2     2.416593    22A2     2.421939
      52A1     2.442553    40B2     2.472087    53A1     2.476197
      32B1     2.488538    41B2     2.520387    33B1     2.589278
      54A1     2.619701    55A1     2.677058    23A2     2.679530
      42B2     2.775189    24A2     2.783380    34B1     2.802112
      56A1     2.808742    57A1     2.835972    25A2     2.853211
      43B2     2.853506    35B1     2.857106    44B2     2.877837
      58A1     2.921038    26A2     2.928558    36B1     2.931456
      45B2     2.940150    37B1     2.971766    46B2     3.029052
      59A1     3.038582    47B2     3.057579    60A1     3.066961
      61A1     3.110576    38B1     3.132563    27A2     3.151232
      48B2     3.155087    39B1     3.182427    62A1     3.183362
      63A1     3.196598    28A2     3.221720    49B2     3.228369
      64A1     3.283402    40B1     3.294438    29A2     3.294885
      50B2     3.314753    41B1     3.319792    30A2     3.326458
      65A1     3.347986    51B2     3.352866    66A1     3.372994
      42B1     3.377073    31A2     3.385144    52B2     3.399156
      67A1     3.426805    32A2     3.437317    43B1     3.440165
      53B2     3.468224    68A1     3.495132    44B1     3.498256
      54B2     3.583670    69A1     3.601840    33A2     3.603970
      45B1     3.606012    55B2     3.615306    70A1     3.622527
      56B2     3.732401    34A2     3.760379    46B1     3.763709
      71A1     3.770304    72A1     3.850471    73A1     3.901161
      35A2     3.908859    57B2     3.940755    47B1     3.958144
      74A1     4.043661    58B2     4.049536    48B1     4.144212
      36A2     4.204239    59B2     4.206753    75A1     4.226218
      37A2     4.311786    60B2     4.379324    49B1     4.477449
      76A1     4.478408    50B1     4.579167    77A1     4.580997
      61B2     4.614358    78A1     4.638033    51B1     4.671560
      62B2     4.695928    38A2     4.720390    79A1     4.728702
      63B2     4.815287    80A1     4.878147    52B1     4.918039
      64B2     4.921489    39A2     4.935052    40A2     5.100749
      53B1     5.149250    81A1     5.156077    65B2     5.200356
      82A1     5.231011    66B2     5.245385    54B1     5.258200
      41A2     5.271692    83A1     5.292509    42A2     5.312563
      67B2     5.321560    84A1     5.340727    55B1     5.405619
      68B2     5.435446    85A1     5.487162    43A2     5.497607
      56B1     5.535052    69B2     5.544154    70B2     5.589822
      86A1     5.600917    57B1     5.620071    58B1     5.673193
      87A1     5.674286    71B2     5.706695    44A2     5.708506
      88A1     5.741764    45A2     5.801897    72B2     5.888516
      89A1     5.898864    59B1     5.933786    46A2     6.065370
      90A1     6.146088    91A1     6.176548    73B2     6.186117
      60B1     6.246444    47A2     6.268882    74B2     6.287312
      92A1     6.291736    61B1     6.306184    48A2     6.362602
      75B2     6.370058    93A1     6.424597    49A2     6.456843
      94A1     6.469955    95A1     6.497204    76B2     6.502464
      62B1     6.504087    63B1     6.541188    77B2     6.600882
      50A2     6.609041    96A1     6.639432    64B1     6.650842
      78B2     6.706783    97A1     6.736233    51A2     6.764554
      65B1     6.769720    79B2     6.806313    98A1     6.822720
      66B1     6.826749    80B2     6.833186    99A1     6.880356
      52A2     6.925605    67B1     6.927362    53A2     6.943151
     100A1     6.965212    68B1     7.033797    54A2     7.039762
      81B2     7.040698    82B2     7.133055   101A1     7.200242
      83B2     7.275707   102A1     7.353977    69B1     7.417380
      84B2     7.437691   103A1     7.459636    70B1     7.493877
      55A2     7.508969   104A1     7.529251    85B2     7.709499
      71B1     7.811766    86B2     7.869305   105A1     7.880339
      56A2     7.880730    87B2     8.047735   106A1     8.114035
      88B2     8.267957    57A2     8.284207    72B1     8.317941
     107A1     8.416958    73B1     8.477558   108A1     8.527013
      58A2     8.581101    89B2     8.640950   109A1     8.839953
     110A1     9.055512    90B2     9.069882    74B1     9.183253
      59A2     9.254487    91B2     9.400996   111A1     9.461314
      75B1     9.601884    60A2     9.607054    92B2     9.613569
     112A1     9.822630    93B2     9.946075    61A2    10.027949
      76B1    10.099173    94B2    10.101401   113A1    10.147245
     114A1    10.260921    62A2    10.273392    77B1    10.349981
     115A1    10.440079    95B2    10.461645    63A2    11.018342
      78B1    11.023942    64A2    11.040115    96B2    11.042974
      79B1    11.062135   116A1    11.126856    97B2    11.173878
     117A1    11.263330    80B1    11.365879    98B2    11.433164
     118A1    11.529238    65A2    11.629211   119A1    11.735035
      99B2    11.843170   100B2    12.104314   120A1    12.378913
      81B1    14.059049    66A2    14.072713   101B2    14.217682
     121A1    14.221627   102B2    15.095306   122A1    15.130644
      82B1    17.787238   123A1    17.791197   103B2    17.825879
      67A2    17.836917    83B1    17.872647   124A1    17.927593
     104B2    17.969872    84B1    17.979895    68A2    18.008261
     125A1    18.011196    85B1    18.025611   126A1    18.037001
     105B2    18.038597    69A2    18.099408   106B2    18.107201
      70A2    18.127167   127A1    18.203402   107B2    18.217998
      71A2    18.287847    86B1    18.290936   128A1    18.345276
     108B2    18.448824    87B1    19.523883   129A1    19.551849
      72A2    19.607604   130A1    19.792161   109B2    20.498378
      88B1    20.627073   131A1    20.629836    73A2    20.648361
     110B2    20.653283   111B2    20.825795    74A2    20.834073
      89B1    20.863280   132A1    20.914819    90B1    20.931448
      91B1    21.176105    75A2    21.221131   133A1    21.240328
     112B2    21.276746   134A1    21.451482   113B2    21.633122
      76A2    21.658580   135A1    21.738874    92B1    21.924482
     114B2    21.959078   136A1    21.979038   115B2    22.316971
      93B1    23.257482   116B2    23.358631    77A2    23.372538
     137A1    23.386012   138A1    23.721383   117B2    23.881335
      78A2    24.151411    79A2    24.177741   118B2    24.198213
      94B1    24.200058   139A1    24.302353   140A1    24.341533
      95B1    24.398755   119B2    24.616887   141A1    24.727039
      80A2    24.880059    96B1    24.896399   120B2    24.905572
      81A2    24.909232    97B1    24.919777   121B2    24.955418
     142A1    24.994909   143A1    25.051638   122B2    25.079645
     144A1    25.995864   123B2    26.461752    98B1    35.318519
      82A2    35.329656   145A1    35.437919   124B2    35.449745
     125B2    36.201424   146A1    36.238274   147A1   184.255292

    Final Occupation by Irrep:
             A1    A2    B1    B2
    DOCC [     5,    0,    1,    2 ]
    SOCC [     0,    0,    1,    0 ]

  Energy converged.

  @UHF Final Energy:  -290.05696716252947

   => Energetics <=

    Nuclear Repulsion Energy =              9.8717905478806021
    One-Electron Energy =                -425.5467158767672800
    Two-Electron Energy =                 125.6179581663571838
    Total Energy =                       -290.0569671625294745

  UHF NO Occupations:
  HONO-2 :    2 B2 1.9995926
  HONO-1 :    5 A1 1.9873842
  HONO-0 :    2 B1 1.0000000
  LUNO+0 :    6 A1 0.0126158
  LUNO+1 :    3 B2 0.0004074
  LUNO+2 :    7 A1 0.0004071
  LUNO+3 :    3 B1 0.0000022

Properties will be evaluated at   0.000000,   0.000000,   0.000000 Bohr

Properties computed using the SCF density matrix

  Nuclear Dipole Moment: (a.u.)
     X:     0.0000      Y:     0.0000      Z:    -1.8520

  Electronic Dipole Moment: (a.u.)
     X:     0.0000      Y:     0.0000      Z:     1.7174

  Dipole Moment: (a.u.)
     X:     0.0000      Y:     0.0000      Z:    -0.1346     Total:     0.1346

  Dipole Moment: (Debye)
     X:     0.0000      Y:     0.0000      Z:    -0.3420     Total:     0.3420

*** tstop() called on n412-050.vsc4.prov at Sat Oct 31 18:39:43 2020
Module time:
	user time   =    1841.61 seconds =      30.69 minutes
	system time =     246.86 seconds =       4.11 minutes
	total time  =       2466 seconds =      41.10 minutes
Total time:
	user time   =    1841.61 seconds =      30.69 minutes
	system time =     246.86 seconds =       4.11 minutes
	total time  =       2466 seconds =      41.10 minutes

*** tstart() called on n412-050.vsc4.prov
*** at Sat Oct 31 18:39:43 2020

	Wfn Parameters:
	--------------------
	Wavefunction         = CCSD
	Number of irreps     = 4
	Number of MOs        = 452
	Number of active MOs = 447
	AO-Basis             = NONE
	Semicanonical        = false
	Reference            = UHF
	Print Level          = 1

	IRREP	# MOs	# FZDC	# DOCC	# SOCC	# VIRT	# FZVR
	-----	-----	------	------	------	------	------
	 A1	   147	    3	    2	    0	    142	    0
	 A2	   82	    0	    0	    0	    82	    0
	 B1	   98	    1	    0	    1	    96	    0
	 B2	   125	    1	    1	    0	    123	    0
	Transforming integrals...
	IWL integrals will be deleted.
	(OO|OO)...
	Presorting SO-basis two-electron integrals.
	Sorting File: SO Ints (nn|nn) nbuckets = 1
	Transforming the one-electron integrals and constructing Fock matrices
	Starting AA/AB first half-transformation.

      * MP2 total energy                      = -290.195503698129698
      * CCSD total energy                     = -290.216573751119370
*** Psi4 exiting successfully. Buy a developer a beer!
