                               Psi4 1.2a1.dev938

  ==> Input File <==

--------------------------------------------------------------------------
# Any line starting with the # character is a comment line
memory 250000 mb
molecule molecule{
0 3
S          0.0000000000        0.0000000000       -0.5025036822
O          0.0000000000        0.0000000000        1.0069295132
}

set {
  reference uhf
  basis aug-cc-pv(5+d)z
  scf_type OUT_OF_CORE
  freeze_core true
}

energy('ccsd')
--------------------------------------------------------------------------

    Molecular point group: c2v

    Geometry (in Angstrom), charge = 0, multiplicity = 3:

       Center              X                  Y                   Z               Mass
    ------------   -----------------  -----------------  -----------------  -----------------
           S          0.000000000000     0.000000000000    -0.503330671565    31.972070999000
           O          0.000000000000     0.000000000000     1.006102523835    15.994914619560

  Charge       = 0
  Multiplicity = 3
  Basis Set: AUG-CC-PV(5+D)Z
    Blend: AUG-CC-PV(5+D)Z

    Orbital Energies (a.u.)
    -----------------------

    Alpha Occupied:

       1A1   -92.068850     2A1   -20.655148     3A1    -9.062877
       1B1    -6.752559     1B2    -6.752559     4A1    -6.737615
       5A1    -1.449744     6A1    -0.955950     2B2    -0.675410
       2B1    -0.675410     7A1    -0.640135     3B2    -0.434229
       3B1    -0.434229

    Alpha Virtual:

       8A1     0.051127     9A1     0.055719     4B1     0.065560
       4B2     0.065560    10A1     0.124748     5B2     0.136230
       5B1     0.136230    11A1     0.149247     1A2     0.174642
      12A1     0.174642     6B1     0.232039     6B2     0.232039
      13A1     0.236828    14A1     0.250461     7B1     0.295185
       7B2     0.295185    15A1     0.363559     2A2     0.423638
      16A1     0.423638    17A1     0.436208     3A2     0.441688
      18A1     0.441688     8B2     0.446777     8B1     0.446777
       9B1     0.472285     9B2     0.472285    10B1     0.521814
      10B2     0.521814    19A1     0.540651    11B1     0.564380
      11B2     0.564380     4A2     0.571667    20A1     0.571667
      21A1     0.597227    22A1     0.608609    12B1     0.703110
      12B2     0.703110    23A1     0.886872    24A1     0.996839
      13B2     1.003546    13B1     1.003546    25A1     1.056395
       5A2     1.056395     6A2     1.076826    26A1     1.076826
      14B1     1.109319    14B2     1.109319     7A2     1.111170
      27A1     1.111170    28A1     1.137665    15B2     1.146733
      15B1     1.146733    16B1     1.172215    16B2     1.172215
      17B1     1.205589    17B2     1.205589     8A2     1.214900
      29A1     1.214900     9A2     1.249128    30A1     1.249128
      31A1     1.256923    18B2     1.258705    18B1     1.258705
      32A1     1.274458    19B1     1.364988    19B2     1.364988
      33A1     1.397302    20B1     1.477337    20B2     1.477337
      34A1     1.602508    21B1     1.674882    21B2     1.674882
      10A2     1.758277    35A1     1.758277    36A1     1.785768
      37A1     2.173133    22B2     2.255155    22B1     2.255155
      38A1     2.459240    11A2     2.463664    39A1     2.463664
      40A1     2.509922    12A2     2.509922    23B1     2.525116
      23B2     2.525116    24B1     2.562995    24B2     2.562995
      41A1     2.617420    25B1     2.632459    25B2     2.632459
      42A1     2.653705    13A2     2.653705    26B2     2.669267
      26B1     2.669267    14A2     2.672376    43A1     2.672376
      27B1     2.679813    27B2     2.679813    15A2     2.735766
      44A1     2.735766    45A1     2.782093    28B1     2.807152
      28B2     2.807152    29B1     2.909902    29B2     2.909902
      16A2     2.951936    46A1     2.951936    17A2     2.964600
      47A1     2.964600    48A1     2.984891    30B2     3.002339
      30B1     3.002339    31B1     3.174535    31B2     3.174535
      49A1     3.239209    18A2     3.299991    50A1     3.299991
      32B2     3.403553    32B1     3.403553    51A1     3.530378
      33B1     3.540383    33B2     3.540383    19A2     3.616541
      52A1     3.616541    34B1     3.642151    34B2     3.642151
      53A1     3.877966    54A1     4.034442    35B1     4.236501
      35B2     4.236501    55A1     4.355991    20A2     4.355991
      56A1     4.451739    36B1     5.014413    36B2     5.014413
      57A1     5.281973    37B1     5.300918    37B2     5.300918
      38B2     5.307909    38B1     5.307909    58A1     5.439939
      21A2     5.439939    59A1     5.540063    39B1     5.569041
      39B2     5.569041    22A2     5.858489    60A1     5.858489
      61A1     5.934001    62A1     5.937577    23A2     5.937577
      40B2     5.959089    40B1     5.959089    63A1     6.025912
      64A1     6.084819    24A2     6.084819    25A2     6.158959
      65A1     6.158959    41B2     6.173645    41B1     6.173645
      42B1     6.184227    42B2     6.184227    43B2     6.223579
      43B1     6.223579    44B1     6.262544    44B2     6.262544
      45B1     6.321052    45B2     6.321052    26A2     6.389698
      66A1     6.389698    67A1     6.468155    27A2     6.468155
      68A1     6.567098    46B1     6.846124    46B2     6.846124
      69A1     6.996243    47B2     7.106463    47B1     7.106463
      28A2     7.135106    70A1     7.135106    29A2     7.361316
      71A1     7.361316    48B2     7.444332    48B1     7.444332
      72A1     7.473515    49B1     7.510647    49B2     7.510647
      50B2     7.535483    50B1     7.535483    73A1     7.880687
      30A2     7.950337    74A1     7.950337    75A1     8.180707
      51B1     8.270778    51B2     8.270778    31A2     8.548616
      76A1     8.548616    32A2     8.804271    77A1     8.804271
      52B1     9.006468    52B2     9.006468    78A1     9.054899
      53B1    10.145586    53B2    10.145586    79A1    10.492845
      80A1    12.341468    54B1    16.081630    54B2    16.081630
      55B2    16.214829    55B1    16.214829    81A1    16.227012
      33A2    16.227012    82A1    16.276808    34A2    16.276808
      56B1    16.516413    56B2    16.516413    83A1    16.613250
      57B1    16.712096    57B2    16.712096    58B1    16.771590
      58B2    16.771590    35A2    16.779736    84A1    16.779736
      85A1    16.987988    86A1    17.578660    36A2    19.078995
      87A1    19.078995    59B1    19.200044    59B2    19.200044
      60B1    19.216236    60B2    19.216236    37A2    19.351057
      88A1    19.351057    89A1    19.540109    61B2    19.571330
      61B1    19.571330    38A2    19.684660    90A1    19.684660
      62B2    20.068485    62B1    20.068485    91A1    20.360364
      39A2    22.216120    92A1    22.216120    63B2    22.767933
      63B1    22.767933    93A1    23.433750    64B2    25.651540
      64B1    25.651540    94A1    28.631583    95A1    62.456176
      96A1    67.314141

    Beta Occupied:

       1A1   -92.055512     2A1   -20.611907     3A1    -9.049694
       4A1    -6.734460     1B2    -6.718999     1B1    -6.718999
       5A1    -1.342545     6A1    -0.805634     7A1    -0.571827
       2B1    -0.491167     2B2    -0.491167

    Beta Virtual:

       3B1     0.025725     3B2     0.025725     8A1     0.055455
       9A1     0.056048     4B1     0.078193     4B2     0.078193
      10A1     0.127332     5B2     0.140996     5B1     0.140996
      11A1     0.162673    12A1     0.185905     1A2     0.185905
      13A1     0.239167     6B1     0.242093     6B2     0.242093
      14A1     0.264321     7B1     0.317043     7B2     0.317043
      15A1     0.375799    16A1     0.429195     2A2     0.429195
      17A1     0.435347     8B1     0.451102     8B2     0.451102
      18A1     0.489801     3A2     0.489801     9B1     0.490320
       9B2     0.490320    10B1     0.544529    10B2     0.544529
      19A1     0.545004    20A1     0.585067     4A2     0.585067
      11B1     0.594026    11B2     0.594026    21A1     0.605993
      22A1     0.626405    12B1     0.718293    12B2     0.718293
      23A1     0.900721    24A1     1.002601    13B1     1.002607
      13B2     1.002607     5A2     1.063229    25A1     1.063229
      26A1     1.084831     6A2     1.084831    14B1     1.150893
      14B2     1.150893    27A1     1.151404    28A1     1.162031
       7A2     1.162031    15B1     1.173864    15B2     1.173864
      16B2     1.181624    16B1     1.181624    17B1     1.217668
      17B2     1.217668    29A1     1.231164     8A2     1.231164
      30A1     1.252891     9A2     1.252891    31A1     1.260481
      18B2     1.262964    18B1     1.262964    32A1     1.289451
      19B1     1.381224    19B2     1.381224    33A1     1.406827
      20B1     1.508615    20B2     1.508615    34A1     1.619495
      21B1     1.694711    21B2     1.694711    35A1     1.780974
      10A2     1.780974    36A1     1.803375    37A1     2.186954
      22B2     2.289504    22B1     2.289504    38A1     2.467794
      39A1     2.479052    11A2     2.479052    12A2     2.511360
      40A1     2.511360    23B1     2.543173    23B2     2.543173
      24B1     2.596118    24B2     2.596118    41A1     2.637858
      25B1     2.647261    25B2     2.647261    42A1     2.682701
      13A2     2.682701    26B2     2.683412    26B1     2.683412
      43A1     2.695660    14A2     2.695660    27B1     2.698318
      27B2     2.698318    44A1     2.758053    15A2     2.758053
      45A1     2.797717    28B1     2.821425    28B2     2.821425
      29B1     2.918950    29B2     2.918950    16A2     2.958811
      46A1     2.958811    47A1     2.976583    17A2     2.976583
      48A1     2.992248    30B2     3.014742    30B1     3.014742
      31B1     3.188383    31B2     3.188383    49A1     3.243486
      50A1     3.317571    18A2     3.317571    32B2     3.419047
      32B1     3.419047    33B1     3.548120    33B2     3.548120
      51A1     3.552809    52A1     3.665946    19A2     3.665946
      34B1     3.675393    34B2     3.675393    53A1     3.895635
      54A1     4.051038    35B1     4.261470    35B2     4.261470
      55A1     4.369302    20A2     4.369302    56A1     4.464451
      36B1     5.036582    36B2     5.036582    57A1     5.293553
      37B1     5.338607    37B2     5.338607    38B2     5.339107
      38B1     5.339107    58A1     5.453900    21A2     5.453900
      59A1     5.556766    39B1     5.589770    39B2     5.589770
      60A1     5.867681    22A2     5.867681    61A1     5.943135
      62A1     5.960288    23A2     5.960288    40B2     5.964582
      40B1     5.964582    63A1     6.046681    64A1     6.118944
      24A2     6.118944    25A2     6.170275    65A1     6.170275
      41B2     6.185764    41B1     6.185764    42B1     6.208652
      42B2     6.208652    43B2     6.243825    43B1     6.243825
      44B1     6.273448    44B2     6.273448    45B1     6.333022
      45B2     6.333022    26A2     6.399524    66A1     6.399524
      67A1     6.481977    27A2     6.481977    68A1     6.582334
      46B1     6.863134    46B2     6.863134    69A1     7.005525
      47B2     7.116212    47B1     7.116212    28A2     7.154317
      70A1     7.154317    29A2     7.373902    71A1     7.373902
      48B2     7.461943    48B1     7.461943    72A1     7.490628
      49B1     7.520291    49B2     7.520291    50B2     7.573285
      50B1     7.573285    73A1     7.888282    74A1     7.975647
      30A2     7.975647    75A1     8.196095    51B1     8.291100
      51B2     8.291100    31A2     8.580462    76A1     8.580462
      77A1     8.851196    32A2     8.851196    52B1     9.026093
      52B2     9.026093    78A1     9.072327    53B1    10.171541
      53B2    10.171541    79A1    10.508840    80A1    12.378735
      54B1    16.124806    54B2    16.124806    55B2    16.237242
      55B1    16.237242    81A1    16.245382    33A2    16.245382
      82A1    16.294868    34A2    16.294868    56B1    16.531205
      56B2    16.531205    83A1    16.622933    57B1    16.724684
      57B2    16.724684    58B1    16.782814    58B2    16.782814
      35A2    16.792023    84A1    16.792023    85A1    16.996017
      86A1    17.599043    36A2    19.116254    87A1    19.116254
      59B1    19.232945    59B2    19.232945    60B1    19.261629
      60B2    19.261629    37A2    19.374973    88A1    19.374973
      89A1    19.559446    61B2    19.592735    61B1    19.592735
      38A2    19.720107    90A1    19.720107    62B2    20.094809
      62B1    20.094809    91A1    20.382336    39A2    22.264713
      92A1    22.264713    63B2    22.797870    63B1    22.797870
      93A1    23.454893    64B2    25.675119    64B1    25.675119
      94A1    28.634106    95A1    62.472923    96A1    67.323134

    Final Occupation by Irrep:
             A1    A2    B1    B2
    DOCC [     7,    0,    2,    2 ]
    SOCC [     0,    0,    1,    1 ]

  Energy converged.

  @UHF Final Energy:  -472.41804949702430

   => Energetics <=

    Nuclear Repulsion Energy =             44.8742500866825651
    One-Electron Energy =                -741.6979729657297185
    Two-Electron Energy =                 224.4056733820228828
    Total Energy =                       -472.4180494970242989

  UHF NO Occupations:
  HONO-2 :    2 B2 1.9885407
  HONO-1 :    3 B1 1.0000000
  HONO-0 :    3 B2 1.0000000
  LUNO+0 :    4 B2 0.0114593
  LUNO+1 :    4 B1 0.0114593
  LUNO+2 :    8 A1 0.0069228
  LUNO+3 :    9 A1 0.0012139

Properties will be evaluated at   0.000000,   0.000000,   0.000000 Bohr

Properties computed using the SCF density matrix

  Nuclear Dipole Moment: (a.u.)
     X:     0.0000      Y:     0.0000      Z:    -0.0084

  Electronic Dipole Moment: (a.u.)
     X:     0.0000      Y:     0.0000      Z:    -0.7557

  Dipole Moment: (a.u.)
     X:     0.0000      Y:     0.0000      Z:    -0.7642     Total:     0.7642

  Dipole Moment: (Debye)
     X:     0.0000      Y:     0.0000      Z:    -1.9424     Total:     1.9424

*** tstop() called on cqc05 at Thu Aug 20 23:17:28 2020
Module time:
	user time   =     144.80 seconds =       2.41 minutes
	system time =       8.05 seconds =       0.13 minutes
	total time  =        152 seconds =       2.53 minutes
Total time:
	user time   =     144.80 seconds =       2.41 minutes
	system time =       8.05 seconds =       0.13 minutes
	total time  =        152 seconds =       2.53 minutes

*** tstart() called on cqc05
*** at Thu Aug 20 23:17:28 2020

	Wfn Parameters:
	--------------------
	Wavefunction         = CCSD
	Number of irreps     = 4
	Number of MOs        = 263
	Number of active MOs = 257
	AO-Basis             = NONE
	Semicanonical        = false
	Reference            = UHF
	Print Level          = 1

	IRREP	# MOs	# FZDC	# DOCC	# SOCC	# VIRT	# FZVR
	-----	-----	------	------	------	------	------
	 A1	   96	    4	    3	    0	    89	    0
	 A2	   39	    0	    0	    0	    39	    0
	 B1	   64	    1	    1	    1	    61	    0
	 B2	   64	    1	    1	    1	    61	    0
	Transforming integrals...
	IWL integrals will be deleted.
	(OO|OO)...
	Presorting SO-basis two-electron integrals.
	Sorting File: SO Ints (nn|nn) nbuckets = 1
	Transforming the one-electron integrals and constructing Fock matrices
	Starting AA/AB first half-transformation.
	Sorting AA/AB half-transformed integrals.
	Starting BB first half-transformation.
	Sorting BB half-transformed integrals.
	First half integral transformation complete.
	Starting AA second half-transformation.
	Starting AB second half-transformation.
	Starting BB second half-transformation.
	Two-electron integral transformation complete.
	(OO|OV)...
	Starting AA second half-transformation.
	Starting AB second half-transformation.
	Starting BB second half-transformation.
	Two-electron integral transformation complete.
	(OO|VV)...
	Starting AA second half-transformation.
	Starting AB second half-transformation.
	Starting BB second half-transformation.
	Two-electron integral transformation complete.
	(OV|OO)...
	Starting AA/AB first half-transformation.
	Sorting AA/AB half-transformed integrals.
	Starting BB first half-transformation.
	Sorting BB half-transformed integrals.
	First half integral transformation complete.
	Starting AA second half-transformation.
	Starting AB second half-transformation.
	Starting BB second half-transformation.
	Two-electron integral transformation complete.
	(OV|OV)...
	Starting AA second half-transformation.
	Starting AB second half-transformation.
	Starting BB second half-transformation.
	Two-electron integral transformation complete.
	(OV|VV)...
	Starting AA second half-transformation.
	Starting AB second half-transformation.
	Starting BB second half-transformation.
	Two-electron integral transformation complete.
	(VV|OO)...
	Starting AA/AB first half-transformation.
	Sorting AA/AB half-transformed integrals.
	Starting BB first half-transformation.
	Sorting BB half-transformed integrals.
	First half integral transformation complete.
	Starting AA second half-transformation.
	Starting AB second half-transformation.
	Starting BB second half-transformation.
	Two-electron integral transformation complete.
	(VV|OV)...
	Starting AA second half-transformation.
	Starting AB second half-transformation.
	Starting BB second half-transformation.
	Two-electron integral transformation complete.
	(VV|VV)...
	Starting AA second half-transformation.
	Starting AB second half-transformation.
	Starting BB second half-transformation.
	Two-electron integral transformation complete.
	Frozen core energy     =   -478.91676813629743

	Size of irrep 0 of <AB|CD> integrals:     69.172 (MW) /    553.380 (MB)
	Size of irrep 1 of <AB|CD> integrals:     51.725 (MW) /    413.799 (MB)
	Size of irrep 2 of <AB|CD> integrals:     60.965 (MW) /    487.719 (MB)
	Size of irrep 3 of <AB|CD> integrals:     60.965 (MW) /    487.719 (MB)
	Total:                                   242.827 (MW) /   1942.617 (MB)

	Size of irrep 0 of <ab|cd> integrals:     71.217 (MW) /    569.734 (MB)
	Size of irrep 1 of <ab|cd> integrals:     53.509 (MW) /    428.074 (MB)
	Size of irrep 2 of <ab|cd> integrals:     62.980 (MW) /    503.841 (MB)
	Size of irrep 3 of <ab|cd> integrals:     62.980 (MW) /    503.841 (MB)
	Total:                                   250.686 (MW) /   2005.489 (MB)

	Size of irrep 0 of <Ab|Cd> integrals:    289.204 (MW) /   2313.632 (MB)
	Size of irrep 1 of <Ab|Cd> integrals:    210.424 (MW) /   1683.392 (MB)
	Size of irrep 2 of <Ab|Cd> integrals:    247.874 (MW) /   1982.988 (MB)
	Size of irrep 3 of <Ab|Cd> integrals:    247.874 (MW) /   1982.988 (MB)
	Total:                                   995.375 (MW) /   7963.001 (MB)

	Size of irrep 0 of <IA|BC> integrals:      8.628 (MW) /     69.022 (MB)
	Size of irrep 1 of <IA|BC> integrals:      5.193 (MW) /     41.541 (MB)
	Size of irrep 2 of <IA|BC> integrals:      6.855 (MW) /     54.843 (MB)
	Size of irrep 3 of <IA|BC> integrals:      6.855 (MW) /     54.843 (MB)
	Total:                                    27.531 (MW) /    220.250 (MB)

	Size of irrep 0 of <ia|bc> integrals:      6.698 (MW) /     53.583 (MB)
	Size of irrep 1 of <ia|bc> integrals:      3.526 (MW) /     28.207 (MB)
	Size of irrep 2 of <ia|bc> integrals:      4.984 (MW) /     39.870 (MB)
	Size of irrep 3 of <ia|bc> integrals:      4.984 (MW) /     39.870 (MB)
	Total:                                    20.191 (MW) /    161.530 (MB)

	Size of irrep 0 of <Ia|Bc> integrals:      8.758 (MW) /     70.065 (MB)
	Size of irrep 1 of <Ia|Bc> integrals:      5.295 (MW) /     42.358 (MB)
	Size of irrep 2 of <Ia|Bc> integrals:      6.959 (MW) /     55.671 (MB)
	Size of irrep 3 of <Ia|Bc> integrals:      6.959 (MW) /     55.671 (MB)
	Total:                                    27.970 (MW) /    223.764 (MB)

	Size of irrep 0 of <iA|bC> integrals:      6.615 (MW) /     52.923 (MB)
	Size of irrep 1 of <iA|bC> integrals:      3.467 (MW) /     27.735 (MB)
	Size of irrep 2 of <iA|bC> integrals:      4.896 (MW) /     39.171 (MB)
	Size of irrep 3 of <iA|bC> integrals:      4.896 (MW) /     39.171 (MB)
	Total:                                    19.875 (MW) /    159.000 (MB)

	Size of irrep 0 of tIjAb amplitudes:       0.221 (MW) /      1.769 (MB)
	Size of irrep 1 of tIjAb amplitudes:       0.058 (MW) /      0.464 (MB)
	Size of irrep 2 of tIjAb amplitudes:       0.142 (MW) /      1.134 (MB)
	Size of irrep 3 of tIjAb amplitudes:       0.142 (MW) /      1.134 (MB)
	Total:                                     0.562 (MW) /      4.500 (MB)

	Nuclear Rep. energy          =     44.87425008668257
	SCF energy                   =   -472.41804949702430
	One-electron energy          =    -67.78361628979684
	Two-electron (AA) energy     =      8.45676058230455
	Two-electron (BB) energy     =      4.14013570482403
	Two-electron (AB) energy     =     16.81118855526014
	Two-electron energy          =     29.40808484238872
	Reference energy             =   -472.41804949702299

*** tstop() called on cqc05 at Thu Aug 20 23:22:32 2020
Module time:
	user time   =     117.69 seconds =       1.96 minutes
	system time =      61.01 seconds =       1.02 minutes
	total time  =        304 seconds =       5.07 minutes
Total time:
	user time   =     262.49 seconds =       4.37 minutes
	system time =      69.06 seconds =       1.15 minutes

      * MP2 total energy                      = -472.842630267886079
      * CCSD total energy                     = -472.847573132281411
*** Psi4 exiting successfully. Buy a developer a beer!
