                               Psi4 1.2a1.dev938

  ==> Input File <==

--------------------------------------------------------------------------
# Any line starting with the # character is a comment line
memory 250000 mb
molecule molecule{
0 3
S          0.0000000000        0.0000000000       -0.5025036822
O          0.0000000000        0.0000000000        1.0069295132
}

set {
  reference uhf
  basis aug-cc-pv(d+d)z
  scf_type OUT_OF_CORE
  freeze_core true
}

energy('ccsd')
--------------------------------------------------------------------------

    Molecular point group: c2v

    Geometry (in Angstrom), charge = 0, multiplicity = 3:

       Center              X                  Y                   Z               Mass
    ------------   -----------------  -----------------  -----------------  -----------------
           S          0.000000000000     0.000000000000    -0.503330671565    31.972070999000
           O          0.000000000000     0.000000000000     1.006102523835    15.994914619560

  Charge       = 0
  Multiplicity = 3
  Basis Set: AUG-CC-PV(D+D)Z
    Blend: AUG-CC-PV(D+D)Z

    Orbital Energies (a.u.)
    -----------------------

    Alpha Occupied:

       1A1   -92.074774     2A1   -20.671396     3A1    -9.069300
       1B2    -6.757206     1B1    -6.757206     4A1    -6.745290
       5A1    -1.459562     6A1    -0.959023     2B2    -0.678605
       2B1    -0.678605     7A1    -0.643149     3B2    -0.432787
       3B1    -0.432787

    Alpha Virtual:

       8A1     0.070541     9A1     0.094760     4B2     0.104876
       4B1     0.104876    10A1     0.197085    11A1     0.231795
       5B1     0.240927     5B2     0.240927     1A2     0.318840
      12A1     0.318840    13A1     0.398793     6B2     0.441670
       6B1     0.441670    14A1     0.615706     7B2     0.747166
       7B1     0.747166    15A1     0.782628    16A1     0.940723
       8B2     0.972938     8B1     0.972938     2A2     0.984002
      17A1     0.984002     3A2     1.013223    18A1     1.013223
      19A1     1.208792     9B1     1.256545     9B2     1.256545
      20A1     1.468161    10B2     1.523008    10B1     1.523008
      21A1     1.719145    22A1     2.826416     4A2     3.507304
      23A1     3.507304    11B1     3.607330    11B2     3.607330
      24A1     3.652673     5A2     4.953072    25A1     4.953072
      12B2     5.031710    12B1     5.031710    26A1     5.111462

    Beta Occupied:

       1A1   -92.062636     2A1   -20.626932     3A1    -9.056118
       4A1    -6.741906     1B1    -6.725505     1B2    -6.725505
       5A1    -1.351081     6A1    -0.810617     7A1    -0.573044
       2B2    -0.492111     2B1    -0.492111

    Beta Virtual:

       3B2     0.025492     3B1     0.025492     8A1     0.076273
       9A1     0.100719     4B1     0.125119     4B2     0.125119
      10A1     0.209998    11A1     0.248889     5B2     0.257345
       5B1     0.257345     1A2     0.372433    12A1     0.372433
      13A1     0.406949     6B2     0.488351     6B1     0.488351
      14A1     0.646407    15A1     0.792465     7B1     0.798983
       7B2     0.798983    16A1     0.946230     8B1     1.004434
       8B2     1.004434     2A2     1.019702    17A1     1.019702
       3A2     1.066254    18A1     1.066254    19A1     1.246533
       9B2     1.305915     9B1     1.305915    20A1     1.488979
      10B2     1.588691    10B1     1.588691    21A1     1.743350
      22A1     2.849074     4A2     3.599503    23A1     3.599503
      11B2     3.659976    11B1     3.659976    24A1     3.699336
       5A2     4.966689    25A1     4.966689    12B2     5.039452
      12B1     5.039452    26A1     5.117978

    Final Occupation by Irrep:
             A1    A2    B1    B2
    DOCC [     7,    0,    2,    2 ]
    SOCC [     0,    0,    1,    1 ]

  Energy converged.

  @UHF Final Energy:  -472.37133578941325

   => Energetics <=

    Nuclear Repulsion Energy =             44.8742500866825651
    One-Electron Energy =                -741.4739134035885399
    Two-Electron Energy =                 224.2283275274927519
    PCM Polarization Energy =               0.0000000000000000
    Total Energy =                       -472.3713357894132514

    Alert: EFP and PCM quantities not currently incorporated into SCF psivars.
  UHF NO Occupations:
  HONO-2 :    2 B1 1.9892169
  HONO-1 :    3 B2 1.0000000
  HONO-0 :    3 B1 1.0000000
  LUNO+0 :    4 B1 0.0107831
  LUNO+1 :    4 B2 0.0107831
  LUNO+2 :    8 A1 0.0056275
  LUNO+3 :    9 A1 0.0011153

Properties will be evaluated at   0.000000,   0.000000,   0.000000 Bohr

Properties computed using the SCF density matrix

  Nuclear Dipole Moment: (a.u.)
     X:     0.0000      Y:     0.0000      Z:    -0.0084

  Electronic Dipole Moment: (a.u.)
     X:     0.0000      Y:     0.0000      Z:    -0.7378

  Dipole Moment: (a.u.)
     X:     0.0000      Y:     0.0000      Z:    -0.7463     Total:     0.7463

  Dipole Moment: (Debye)
     X:     0.0000      Y:     0.0000      Z:    -1.8968     Total:     1.8968

*** tstop() called on cqc05 at Thu Aug 20 19:56:57 2020
Module time:
	user time   =       1.45 seconds =       0.02 minutes
	system time =       0.02 seconds =       0.00 minutes
	total time  =          0 seconds =       0.00 minutes
Total time:
	user time   =       1.45 seconds =       0.02 minutes
	system time =       0.02 seconds =       0.00 minutes
	total time  =          0 seconds =       0.00 minutes

*** tstart() called on cqc05
*** at Thu Aug 20 19:56:57 2020

	Wfn Parameters:
	--------------------
	Wavefunction         = CCSD
	Number of irreps     = 4
	Number of MOs        = 55
	Number of active MOs = 49
	AO-Basis             = NONE
	Semicanonical        = false
	Reference            = UHF
	Print Level          = 1

	IRREP	# MOs	# FZDC	# DOCC	# SOCC	# VIRT	# FZVR
	-----	-----	------	------	------	------	------
	 A1	   26	    4	    3	    0	    19	    0
	 A2	   5	    0	    0	    0	    5	    0
	 B1	   12	    1	    1	    1	    9	    0
	 B2	   12	    1	    1	    1	    9	    0
	Transforming integrals...
	IWL integrals will be deleted.
	(OO|OO)...
	Presorting SO-basis two-electron integrals.
	Sorting File: SO Ints (nn|nn) nbuckets = 1
	Transforming the one-electron integrals and constructing Fock matrices
	Starting AA/AB first half-transformation.
	Sorting AA/AB half-transformed integrals.
	Starting BB first half-transformation.
	Sorting BB half-transformed integrals.
	First half integral transformation complete.
	Starting AA second half-transformation.
	Starting AB second half-transformation.
	Starting BB second half-transformation.
	Two-electron integral transformation complete.
	(OO|OV)...
	Starting AA second half-transformation.
	Starting AB second half-transformation.
	Starting BB second half-transformation.
	Two-electron integral transformation complete.
	(OO|VV)...
	Starting AA second half-transformation.
	Starting AB second half-transformation.
	Starting BB second half-transformation.
	Two-electron integral transformation complete.
	(OV|OO)...
	Starting AA/AB first half-transformation.
	Sorting AA/AB half-transformed integrals.
	Starting BB first half-transformation.
	Sorting BB half-transformed integrals.
	First half integral transformation complete.
	Starting AA second half-transformation.
	Starting AB second half-transformation.
	Starting BB second half-transformation.
	Two-electron integral transformation complete.
	(OV|OV)...
	Starting AA second half-transformation.
	Starting AB second half-transformation.
	Starting BB second half-transformation.
	Two-electron integral transformation complete.
	(OV|VV)...
	Starting AA second half-transformation.
	Starting AB second half-transformation.
	Starting BB second half-transformation.
	Two-electron integral transformation complete.
	(VV|OO)...
	Starting AA/AB first half-transformation.
	Sorting AA/AB half-transformed integrals.
	Starting BB first half-transformation.
	Sorting BB half-transformed integrals.
	First half integral transformation complete.
	Starting AA second half-transformation.
	Starting AB second half-transformation.
	Starting BB second half-transformation.
	Two-electron integral transformation complete.
	(VV|OV)...
	Starting AA second half-transformation.
	Starting AB second half-transformation.
	Starting BB second half-transformation.
	Two-electron integral transformation complete.
	(VV|VV)...
	Starting AA second half-transformation.
	Starting AB second half-transformation.
	Starting BB second half-transformation.
	Two-electron integral transformation complete.
	Frozen core energy     =   -478.90701629876946

	Size of irrep 0 of <AB|CD> integrals:      0.064 (MW) /      0.512 (MB)
	Size of irrep 1 of <AB|CD> integrals:      0.031 (MW) /      0.248 (MB)
	Size of irrep 2 of <AB|CD> integrals:      0.047 (MW) /      0.373 (MB)
	Size of irrep 3 of <AB|CD> integrals:      0.047 (MW) /      0.373 (MB)
	Total:                                     0.188 (MW) /      1.506 (MB)

	Size of irrep 0 of <ab|cd> integrals:      0.073 (MW) /      0.588 (MB)
	Size of irrep 1 of <ab|cd> integrals:      0.038 (MW) /      0.304 (MB)
	Size of irrep 2 of <ab|cd> integrals:      0.058 (MW) /      0.461 (MB)
	Size of irrep 3 of <ab|cd> integrals:      0.058 (MW) /      0.461 (MB)
	Total:                                     0.227 (MW) /      1.813 (MB)

	Size of irrep 0 of <Ab|Cd> integrals:      0.320 (MW) /      2.563 (MB)
	Size of irrep 1 of <Ab|Cd> integrals:      0.137 (MW) /      1.095 (MB)
	Size of irrep 2 of <Ab|Cd> integrals:      0.208 (MW) /      1.663 (MB)
	Size of irrep 3 of <Ab|Cd> integrals:      0.208 (MW) /      1.663 (MB)
	Total:                                     0.873 (MW) /      6.985 (MB)

	Size of irrep 0 of <IA|BC> integrals:      0.051 (MW) /      0.408 (MB)
	Size of irrep 1 of <IA|BC> integrals:      0.018 (MW) /      0.144 (MB)
	Size of irrep 2 of <IA|BC> integrals:      0.032 (MW) /      0.259 (MB)
	Size of irrep 3 of <IA|BC> integrals:      0.032 (MW) /      0.259 (MB)
	Total:                                     0.134 (MW) /      1.070 (MB)

	Size of irrep 0 of <ia|bc> integrals:      0.045 (MW) /      0.361 (MB)
	Size of irrep 1 of <ia|bc> integrals:      0.014 (MW) /      0.109 (MB)
	Size of irrep 2 of <ia|bc> integrals:      0.026 (MW) /      0.207 (MB)
	Size of irrep 3 of <ia|bc> integrals:      0.026 (MW) /      0.207 (MB)
	Total:                                     0.111 (MW) /      0.885 (MB)

	Size of irrep 0 of <Ia|Bc> integrals:      0.055 (MW) /      0.439 (MB)
	Size of irrep 1 of <Ia|Bc> integrals:      0.020 (MW) /      0.163 (MB)
	Size of irrep 2 of <Ia|Bc> integrals:      0.036 (MW) /      0.285 (MB)
	Size of irrep 3 of <Ia|Bc> integrals:      0.036 (MW) /      0.285 (MB)
	Total:                                     0.146 (MW) /      1.171 (MB)

	Size of irrep 0 of <iA|bC> integrals:      0.042 (MW) /      0.340 (MB)
	Size of irrep 1 of <iA|bC> integrals:      0.012 (MW) /      0.098 (MB)
	Size of irrep 2 of <iA|bC> integrals:      0.023 (MW) /      0.186 (MB)
	Size of irrep 3 of <iA|bC> integrals:      0.023 (MW) /      0.186 (MB)
	Total:                                     0.101 (MW) /      0.809 (MB)

	Size of irrep 0 of tIjAb amplitudes:       0.007 (MW) /      0.059 (MB)
	Size of irrep 1 of tIjAb amplitudes:       0.001 (MW) /      0.012 (MB)
	Size of irrep 2 of tIjAb amplitudes:       0.004 (MW) /      0.033 (MB)
	Size of irrep 3 of tIjAb amplitudes:       0.004 (MW) /      0.033 (MB)
	Total:                                     0.017 (MW) /      0.136 (MB)

	Nuclear Rep. energy          =     44.87425008668257
	SCF energy                   =   -472.37133578941325
	One-electron energy          =    -67.67365460124989
	Two-electron (AA) energy     =      8.44509692716050
	Two-electron (BB) energy     =      4.12338045135910
	Two-electron (AB) energy     =     16.76660764540451
	Two-electron energy          =     29.33508502392412
	Reference energy             =   -472.37133578941268

*** tstop() called on cqc05 at Thu Aug 20 19:56:58 2020
Module time:
	user time   =       0.18 seconds =       0.00 minutes
	system time =       0.12 seconds =       0.00 minutes
	total time  =          1 seconds =       0.02 minutes
Total time:
	user time   =       1.63 seconds =       0.03 minutes
	system time =       0.14 seconds =       0.00 minutes
	total time  =          1 seconds =       0.02 minutes

*** tstart() called on cqc05
*** at Thu Aug 20 19:56:58 2020

            **************************
            *                        *
            *        CCENERGY        *
            *                        *
            **************************

    Nuclear Rep. energy (wfn)     =   44.874250086682565
    SCF energy          (wfn)     = -472.371335789413251
    Reference energy    (file100) = -472.371335789412683

    Input parameters:
    -----------------
    Wave function   =     CCSD
    Reference wfn   =     UHF
    Brueckner       =     No
    Memory (Mbytes) =     250000.0
    Maxiter         =     50
    R_Convergence   =     1.0e-07
    E_Convergence   =     1.0e-06
    Restart         =     Yes
    DIIS            =     Yes
    AO Basis        =     NONE
    ABCD            =     NEW
    Cache Level     =     2
    Cache Type      =     LRU
    Print Level     =     1
    Num. of threads =     4
    # Amps to Print =     10
    Print MP2 Amps? =     No
    Analyze T2 Amps =     No
    Print Pair Ener =     No
    Local CC        =     No
    SCS-MP2         =     False
    SCSN-MP2        =     False
    SCS-CCSD        =     False

MP2 correlation energy -0.3154499056574914
                Solving CC Amplitude Equations
                ------------------------------
  Iter             Energy              RMS        T1Diag      D1Diag    New D1Diag    D2Diag
  ----     ---------------------    ---------   ----------  ----------  ----------   --------
     0        -0.315449905657494    0.000e+00    0.000000    0.000000    0.000000    0.000000
     1        -0.313313249515511    9.500e-02    0.021535    0.000000    0.000000    0.000000
     2        -0.325274617848051    3.115e-02    0.022574    0.000000    0.000000    0.000000
     3        -0.328711336343769    1.629e-02    0.027867    0.000000    0.000000    0.000000
     4        -0.328627639321849    4.286e-03    0.029018    0.000000    0.000000    0.000000
     5        -0.328633992556346    1.717e-03    0.029493    0.000000    0.000000    0.000000
     6        -0.328638356525610    6.227e-04    0.029562    0.000000    0.000000    0.000000
     7        -0.328640954569197    2.611e-04    0.029564    0.000000    0.000000    0.000000
     8        -0.328645441714697    1.008e-04    0.029563    0.000000    0.000000    0.000000
     9        -0.328645945213609    3.170e-05    0.029564    0.000000    0.000000    0.000000
    10        -0.328645222123024    1.150e-05    0.029563    0.000000    0.000000    0.000000
    11        -0.328645491507968    4.909e-06    0.029563    0.000000    0.000000    0.000000
    12        -0.328645389008822    2.022e-06    0.029563    0.000000    0.000000    0.000000
    13        -0.328645491167644    8.700e-07    0.029563    0.000000    0.000000    0.000000
    14        -0.328645502938685    2.592e-07    0.029563    0.000000    0.000000    0.000000
    15        -0.328645500670706    9.413e-08    0.029563    0.000000    0.000000    0.000000
    15        -0.328645500670706    9.413e-08    0.029563    0.000000    0.000000    0.000000

    Iterations converged.

    CCSD corr. energy   =   -0.328645500670706
    PPL corr. energy    =    0.072426333368853
    OS PPL corr. energy =    0.054719713180198
    SS PPL corr. energy =    0.017706620188655
    Largest TIA Amplitudes:
              2   2         0.0295266957
              5  35        -0.0290843242
              3  26        -0.0290843068
              5  34        -0.0252902187
              3  25        -0.0252902059
              2   0        -0.0186562121
              2   5        -0.0160245592
              2   3        -0.0137750922
              6  34        -0.0111199402
              4  25        -0.0111199277

    Largest Tia Amplitudes:
              4  41        -0.0202425799
              3  31        -0.0202425447
              4  37         0.0197992357
              3  27         0.0197991412
              1   3        -0.0187519964
              3  24         0.0157128498
              4  34         0.0157122370
              1   2         0.0150137821
              1   5        -0.0133814093
              3  25         0.0121525622

    Largest TIJAB Amplitudes:
      6   4  19   4        -0.0350224080
      6   4  35  26        -0.0211273476
      6   2  35   2         0.0208627770
      4   2  26   2         0.0208627767
      6   4  19   9        -0.0166201043
      6   4  20   4        -0.0166201043
      5   4  19   4         0.0161851261
      6   3  19   4         0.0161851257
      6   4  36  27        -0.0150084469
      6   4  20   9        -0.0145500684

    Largest Tijab Amplitudes:
      4   3  34  24        -0.0880391765
      4   3  34  25        -0.0346004627
      4   3  35  24        -0.0346004597
      3   2  24   3         0.0322819617
      4   2  34   3         0.0322819390
      3   2  24   2        -0.0265625884
      4   2  34   2        -0.0265625694
      4   3  36  24         0.0264871941
      4   3  34  26         0.0264871802
      4   3  37  24         0.0238043425

    Largest TIjAb Amplitudes:
      2   3   2  24        -0.0372843817
      2   4   2  34        -0.0372843594
      4   3  26  24         0.0349154143
      6   4  35  34         0.0349153777
      2   2   2   3         0.0312285093
      2   2   2   2        -0.0292562521
      4   1  19  34         0.0281585724
      6   1   4  34        -0.0281585707
      4   1   4  24         0.0281585595
      6   1  19  24         0.0281585578

    SCF energy       (wfn)                    = -472.371335789413251
    Reference energy (file100)                = -472.371335789412683

    Opposite-spin MP2 correlation energy      =   -0.223302327248465
    Same-spin MP2 correlation energy          =   -0.092147578408991
    MP2 correlation energy                    =   -0.315449905657491
      * MP2 total energy                      = -472.686785695070171
      * CCSD total energy                     = -472.699981290083372
*** Psi4 exiting successfully. Buy a developer a beer!
