                               Psi4 1.2a1.dev938

  ==> Input File <==

--------------------------------------------------------------------------
# Any line starting with the # character is a comment line
memory 250000 mb
molecule molecule{
0 2
C          0.0000000000        0.0000000000       -0.0861964165
H          0.0000000000        0.0000000000        1.0271495913
}

set {
  reference uhf
  basis aug-cc-pv(d+d)z
  scf_type OUT_OF_CORE
  freeze_core true
}

energy('ccsd')
--------------------------------------------------------------------------

    Molecular point group: c2v

    Geometry (in Angstrom), charge = 0, multiplicity = 2:

       Center              X                  Y                   Z               Mass
    ------------   -----------------  -----------------  -----------------  -----------------
           C          0.000000000000     0.000000000000    -0.086260229766    12.000000000000
           H          0.000000000000     0.000000000000     1.027085778034     1.007825032070

  Charge       = 0
  Multiplicity = 2
  Basis Set: AUG-CC-PV(D+D)Z
    Blend: AUG-CC-PV(D+D)Z

    Orbital Energies (a.u.)
    -----------------------

    Alpha Occupied:

       1A1   -11.333293     2A1    -0.882578     3A1    -0.473581
       1B1    -0.423520

    Alpha Virtual:

       1B2     0.019501     4A1     0.037015     2B1     0.115183
       5A1     0.119386     2B2     0.148584     6A1     0.175779
       7A1     0.279564     3B1     0.365144     3B2     0.371546
       1A2     0.442498     8A1     0.442995     9A1     0.499536
      10A1     0.578857     4B1     0.584780     4B2     0.592840
       5B1     0.809436    11A1     0.863955     5B2     0.865007
      12A1     0.969606     6B1     1.522991     6B2     1.536729
      13A1     1.600387     2A2     1.642102    14A1     1.643060
      15A1     2.101354     7B2     2.141020     7B1     2.141576
      16A1     2.696956

    Beta Occupied:

       1A1   -11.309527     2A1    -0.788634     3A1    -0.434499

    Beta Virtual:

       1B2     0.032738     4A1     0.038519     1B1     0.063233
       5A1     0.121139     2B2     0.159003     6A1     0.182832
       2B1     0.194376     7A1     0.288339     3B2     0.372754
       3B1     0.388330     8A1     0.464899     1A2     0.467516
       9A1     0.513105    10A1     0.586719     4B2     0.594429
       4B1     0.612332    11A1     0.877698     5B2     0.879373
       5B1     0.925844    12A1     0.985860     6B2     1.541599
       6B1     1.573546    13A1     1.618094     2A2     1.713018
      14A1     1.716503    15A1     2.124784     7B2     2.143600
       7B1     2.172464    16A1     2.703261

    Final Occupation by Irrep:
             A1    A2    B1    B2
    DOCC [     3,    0,    0,    0 ]
    SOCC [     0,    0,    1,    0 ]

  Energy converged.

  @UHF Final Energy:   -38.27543593248762

   => Energetics <=

    Nuclear Repulsion Energy =              2.8518207541014187
    One-Electron Energy =                 -56.6088819312943343
    Two-Electron Energy =                  15.4816252447052882
    PCM Polarization Energy =               0.0000000000000000
    Total Energy =                        -38.2754359324876248

    Alert: EFP and PCM quantities not currently incorporated into SCF psivars.
  UHF NO Occupations:
  HONO-2 :    2 A1 1.9995296
  HONO-1 :    3 A1 1.9959506
  HONO-0 :    1 B1 1.0000000
  LUNO+0 :    4 A1 0.0040494
  LUNO+1 :    5 A1 0.0004704
  LUNO+2 :    6 A1 0.0000006
  LUNO+3 :    7 A1 0.0000000

Properties will be evaluated at   0.000000,   0.000000,   0.000000 Bohr

Properties computed using the SCF density matrix

  Nuclear Dipole Moment: (a.u.)
     X:     0.0000      Y:     0.0000      Z:     0.9629

  Electronic Dipole Moment: (a.u.)
     X:     0.0000      Y:     0.0000      Z:    -0.3321

  Dipole Moment: (a.u.)
     X:     0.0000      Y:     0.0000      Z:     0.6308     Total:     0.6308

  Dipole Moment: (Debye)
     X:     0.0000      Y:     0.0000      Z:     1.6033     Total:     1.6033

*** tstop() called on cqc05 at Thu Aug 20 19:53:36 2020
Module time:
	user time   =       0.27 seconds =       0.00 minutes
	system time =       0.02 seconds =       0.00 minutes
	total time  =          1 seconds =       0.02 minutes
Total time:
	user time   =       0.27 seconds =       0.00 minutes
	system time =       0.02 seconds =       0.00 minutes
	total time  =          1 seconds =       0.02 minutes

*** tstart() called on cqc05
*** at Thu Aug 20 19:53:36 2020

	Wfn Parameters:
	--------------------
	Wavefunction         = CCSD
	Number of irreps     = 4
	Number of MOs        = 32
	Number of active MOs = 31
	AO-Basis             = NONE
	Semicanonical        = false
	Reference            = UHF
	Print Level          = 1

	IRREP	# MOs	# FZDC	# DOCC	# SOCC	# VIRT	# FZVR
	-----	-----	------	------	------	------	------
	 A1	   16	    1	    2	    0	    13	    0
	 A2	   2	    0	    0	    0	    2	    0
	 B1	   7	    0	    0	    1	    6	    0
	 B2	   7	    0	    0	    0	    7	    0
	Transforming integrals...
	IWL integrals will be deleted.
	(OO|OO)...
	Presorting SO-basis two-electron integrals.
	Sorting File: SO Ints (nn|nn) nbuckets = 1
	Transforming the one-electron integrals and constructing Fock matrices
	Starting AA/AB first half-transformation.
	Sorting AA/AB half-transformed integrals.
	Starting BB first half-transformation.
	Sorting BB half-transformed integrals.
	First half integral transformation complete.
	Starting AA second half-transformation.
	Starting AB second half-transformation.
	Starting BB second half-transformation.
	Two-electron integral transformation complete.
	(OO|OV)...
	Starting AA second half-transformation.
	Starting AB second half-transformation.
	Starting BB second half-transformation.
	Two-electron integral transformation complete.
	(OO|VV)...
	Starting AA second half-transformation.
	Starting AB second half-transformation.
	Starting BB second half-transformation.
	Two-electron integral transformation complete.
	(OV|OO)...
	Starting AA/AB first half-transformation.
	Sorting AA/AB half-transformed integrals.
	Starting BB first half-transformation.
	Sorting BB half-transformed integrals.
	First half integral transformation complete.
	Starting AA second half-transformation.
	Starting AB second half-transformation.
	Starting BB second half-transformation.
	Two-electron integral transformation complete.
	(OV|OV)...
	Starting AA second half-transformation.
	Starting AB second half-transformation.
	Starting BB second half-transformation.
	Two-electron integral transformation complete.
	(OV|VV)...
	Starting AA second half-transformation.
	Starting AB second half-transformation.
	Starting BB second half-transformation.
	Two-electron integral transformation complete.
	(VV|OO)...
	Starting AA/AB first half-transformation.
	Sorting AA/AB half-transformed integrals.
	Starting BB first half-transformation.
	Sorting BB half-transformed integrals.
	First half integral transformation complete.
	Starting AA second half-transformation.
	Starting AB second half-transformation.
	Starting BB second half-transformation.
	Two-electron integral transformation complete.
	(VV|OV)...
	Starting AA second half-transformation.
	Starting AB second half-transformation.
	Starting BB second half-transformation.
	Two-electron integral transformation complete.
	(VV|VV)...
	Starting AA second half-transformation.
	Starting AB second half-transformation.
	Starting BB second half-transformation.
	Two-electron integral transformation complete.
	Frozen core energy     =    -33.30975275562672

	Size of irrep 0 of <AB|CD> integrals:      0.013 (MW) /      0.106 (MB)
	Size of irrep 1 of <AB|CD> integrals:      0.005 (MW) /      0.037 (MB)
	Size of irrep 2 of <AB|CD> integrals:      0.008 (MW) /      0.068 (MB)
	Size of irrep 3 of <AB|CD> integrals:      0.011 (MW) /      0.085 (MB)
	Total:                                     0.037 (MW) /      0.295 (MB)

	Size of irrep 0 of <ab|cd> integrals:      0.015 (MW) /      0.117 (MB)
	Size of irrep 1 of <ab|cd> integrals:      0.006 (MW) /      0.045 (MB)
	Size of irrep 2 of <ab|cd> integrals:      0.011 (MW) /      0.088 (MB)
	Size of irrep 3 of <ab|cd> integrals:      0.011 (MW) /      0.088 (MB)
	Total:                                     0.042 (MW) /      0.339 (MB)

	Size of irrep 0 of <Ab|Cd> integrals:      0.070 (MW) /      0.558 (MB)
	Size of irrep 1 of <Ab|Cd> integrals:      0.020 (MW) /      0.164 (MB)
	Size of irrep 2 of <Ab|Cd> integrals:      0.039 (MW) /      0.310 (MB)
	Size of irrep 3 of <Ab|Cd> integrals:      0.043 (MW) /      0.346 (MB)
	Total:                                     0.172 (MW) /      1.378 (MB)

	Size of irrep 0 of <IA|BC> integrals:      0.008 (MW) /      0.066 (MB)
	Size of irrep 1 of <IA|BC> integrals:      0.001 (MW) /      0.012 (MB)
	Size of irrep 2 of <IA|BC> integrals:      0.005 (MW) /      0.037 (MB)
	Size of irrep 3 of <IA|BC> integrals:      0.003 (MW) /      0.026 (MB)
	Total:                                     0.018 (MW) /      0.141 (MB)

	Size of irrep 0 of <ia|bc> integrals:      0.007 (MW) /      0.056 (MB)
	Size of irrep 1 of <ia|bc> integrals:      0.001 (MW) /      0.005 (MB)
	Size of irrep 2 of <ia|bc> integrals:      0.003 (MW) /      0.024 (MB)
	Size of irrep 3 of <ia|bc> integrals:      0.003 (MW) /      0.024 (MB)
	Total:                                     0.014 (MW) /      0.108 (MB)

	Size of irrep 0 of <Ia|Bc> integrals:      0.009 (MW) /      0.070 (MB)
	Size of irrep 1 of <Ia|Bc> integrals:      0.002 (MW) /      0.013 (MB)
	Size of irrep 2 of <Ia|Bc> integrals:      0.005 (MW) /      0.043 (MB)
	Size of irrep 3 of <Ia|Bc> integrals:      0.003 (MW) /      0.027 (MB)
	Total:                                     0.019 (MW) /      0.151 (MB)

	Size of irrep 0 of <iA|bC> integrals:      0.007 (MW) /      0.055 (MB)
	Size of irrep 1 of <iA|bC> integrals:      0.001 (MW) /      0.005 (MB)
	Size of irrep 2 of <iA|bC> integrals:      0.002 (MW) /      0.019 (MB)
	Size of irrep 3 of <iA|bC> integrals:      0.003 (MW) /      0.023 (MB)
	Total:                                     0.013 (MW) /      0.102 (MB)

	Size of irrep 0 of tIjAb amplitudes:       0.001 (MW) /      0.008 (MB)
	Size of irrep 1 of tIjAb amplitudes:       0.000 (MW) /      0.000 (MB)
	Size of irrep 2 of tIjAb amplitudes:       0.000 (MW) /      0.003 (MB)
	Size of irrep 3 of tIjAb amplitudes:       0.000 (MW) /      0.000 (MB)
	Total:                                     0.001 (MW) /      0.012 (MB)

	Nuclear Rep. energy          =      2.85182075410142
	SCF energy                   =    -38.27543593248762
	One-electron energy          =    -12.63219565116986
	Two-electron (AA) energy     =      1.28800825787160
	Two-electron (BB) energy     =      0.38636570503743
	Two-electron (AB) energy     =      3.14031775729852
	Two-electron energy          =      4.81469172020754
	Reference energy             =    -38.27543593248761

*** tstop() called on cqc05 at Thu Aug 20 19:53:36 2020
Module time:
	user time   =       0.06 seconds =       0.00 minutes
	system time =       0.03 seconds =       0.00 minutes
	total time  =          0 seconds =       0.00 minutes
Total time:
	user time   =       0.33 seconds =       0.01 minutes
	system time =       0.05 seconds =       0.00 minutes
	total time  =          1 seconds =       0.02 minutes

*** tstart() called on cqc05
*** at Thu Aug 20 19:53:36 2020

            **************************
            *                        *
            *        CCENERGY        *
            *                        *
            **************************

    Nuclear Rep. energy (wfn)     =    2.851820754101419
    SCF energy          (wfn)     =  -38.275435932487625
    Reference energy    (file100) =  -38.275435932487611

    Input parameters:
    -----------------
    Wave function   =     CCSD
    Reference wfn   =     UHF
    Brueckner       =     No
    Memory (Mbytes) =     250000.0
    Maxiter         =     50
    R_Convergence   =     1.0e-07
    E_Convergence   =     1.0e-06
    Restart         =     Yes
    DIIS            =     Yes
    AO Basis        =     NONE
    ABCD            =     NEW
    Cache Level     =     2
    Cache Type      =     LRU
    Print Level     =     1
    Num. of threads =     4
    # Amps to Print =     10
    Print MP2 Amps? =     No
    Analyze T2 Amps =     No
    Print Pair Ener =     No
    Local CC        =     No
    SCS-MP2         =     False
    SCSN-MP2        =     False
    SCS-CCSD        =     False

MP2 correlation energy -0.0828055669221112
                Solving CC Amplitude Equations
                ------------------------------
  Iter             Energy              RMS        T1Diag      D1Diag    New D1Diag    D2Diag
  ----     ---------------------    ---------   ----------  ----------  ----------   --------
     0        -0.082805566922112    0.000e+00    0.000000    0.000000    0.000000    0.000000
     1        -0.100195581089749    5.341e-02    0.008195    0.000000    0.000000    0.000000
     2        -0.108301904623880    2.515e-02    0.014858    0.000000    0.000000    0.000000
     3        -0.109112222339852    8.667e-03    0.017344    0.000000    0.000000    0.000000
     4        -0.109193771877879    2.826e-03    0.017465    0.000000    0.000000    0.000000
     5        -0.109214769328651    1.310e-03    0.017375    0.000000    0.000000    0.000000
     6        -0.109213133328256    4.932e-04    0.017284    0.000000    0.000000    0.000000
     7        -0.109218539553596    1.401e-04    0.017270    0.000000    0.000000    0.000000
     8        -0.109217640384081    4.561e-05    0.017270    0.000000    0.000000    0.000000
     9        -0.109216852093928    1.450e-05    0.017270    0.000000    0.000000    0.000000
    10        -0.109216796976375    5.580e-06    0.017271    0.000000    0.000000    0.000000
    11        -0.109216846559706    2.114e-06    0.017271    0.000000    0.000000    0.000000
    12        -0.109216879049787    7.827e-07    0.017271    0.000000    0.000000    0.000000
    13        -0.109216856773448    2.494e-07    0.017271    0.000000    0.000000    0.000000
    14        -0.109216853939084    8.107e-08    0.017271    0.000000    0.000000    0.000000
    14        -0.109216853939084    8.107e-08    0.017271    0.000000    0.000000    0.000000

    Iterations converged.

    CCSD corr. energy   =   -0.109216853939084
    PPL corr. energy    =    0.031098130457989
    OS PPL corr. energy =    0.028782694537288
    SS PPL corr. energy =    0.002315435920703
    Largest TIA Amplitudes:
              2  15        -0.0159450094
              1   4        -0.0114413214
              2  16        -0.0098420913
              0   4         0.0092089944
              0  10         0.0070070184
              1  10        -0.0068959122
              1   3        -0.0051629123
              2  18        -0.0040325124
              1   8         0.0034600748
              0  11        -0.0033415518

    Largest Tia Amplitudes:
              1   3        -0.0148746278
              0   3         0.0116940126
              0   6         0.0076576292
              1   6        -0.0066446081
              1   8         0.0063560098
              0  11        -0.0060501076
              1   5         0.0058642443
              0   8        -0.0056504329
              0   7         0.0055670909
              1   0        -0.0043955177

    Largest TIJAB Amplitudes:
      2   1  18   7        -0.0260717574
      2   1  16   3        -0.0222844897
      2   1  18   3        -0.0169744674
      2   1  15   7        -0.0148461691
      2   1  16   7        -0.0134395075
      2   1  19   3        -0.0127927401
      2   1  18   1         0.0121273040
      2   0  21  13         0.0120021258
      2   1  15   3        -0.0117859070
      1   0  23  21         0.0104335310

    Largest Tijab Amplitudes:
      1   0  17  16         0.0108727166
      1   0  20  16         0.0101819198
      1   0  24  22         0.0097233157
      1   0  17  15         0.0090223400
      1   0  27  22         0.0082839479
      1   0   6   3         0.0076952021
      1   0  20  15         0.0076824069
      1   0   8   7        -0.0076261896
      1   0  24  23         0.0074776337
      1   0  27  23         0.0073906226

    Largest TIjAb Amplitudes:
      1   1  21  22        -0.1054885214
      1   1  21  23        -0.0782530096
      1   1  22  22        -0.0658495934
      0   0  21  22        -0.0571671773
      1   1   3   3        -0.0554191513
      1   1   7   7        -0.0546906837
      1   1  22  23        -0.0501080629
      0   0  21  23        -0.0492355885
      0   1  21  22         0.0473955717
      0   0  22  22        -0.0411655814

    SCF energy       (wfn)                    =  -38.275435932487625
    Reference energy (file100)                =  -38.275435932487611

    Opposite-spin MP2 correlation energy      =   -0.070609984227975
    Same-spin MP2 correlation energy          =   -0.012195582694122
    MP2 correlation energy                    =   -0.082805566922111
      * MP2 total energy                      =  -38.358241499409722

    Opposite-spin CCSD correlation energy     =   -0.096138532069448
    Same-spin CCSD correlation energy         =   -0.013078321105524
    CCSD correlation energy                   =   -0.109216853939084
      * CCSD total energy                     =  -38.384652786426692

*** tstop() called on cqc05 at Thu Aug 20 19:53:37 2020
Module time:
	user time   =       0.14 seconds =       0.00 minutes
	system time =       0.17 seconds =       0.00 minutes
	total time  =          1 seconds =       0.02 minutes
Total time:
	user time   =       0.47 seconds =       0.01 minutes
	system time =       0.22 seconds =       0.00 minutes
	total time  =          2 seconds =       0.03 minutes

*** Psi4 exiting successfully. Buy a developer a beer!
