                               Psi4 1.2a1.dev938

  ==> Input File <==

--------------------------------------------------------------------------
# Any line starting with the # character is a comment line
memory 250000 mb
molecule molecule{
0 2
C          0.0000000000        0.0000000000       -0.0861964165
H          0.0000000000        0.0000000000        1.0271495913
}

set {
  reference uhf
  basis aug-cc-pv(5+d)z
  scf_type OUT_OF_CORE
  freeze_core true
}

energy('ccsd')
--------------------------------------------------------------------------

    Molecular point group: c2v

    Geometry (in Angstrom), charge = 0, multiplicity = 2:

       Center              X                  Y                   Z               Mass
    ------------   -----------------  -----------------  -----------------  -----------------
           C          0.000000000000     0.000000000000    -0.086260229766    12.000000000000
           H          0.000000000000     0.000000000000     1.027085778034     1.007825032070

  Charge       = 0
  Multiplicity = 2
  Basis Set: AUG-CC-PV(5+D)Z
    Blend: AUG-CC-PV(5+D)Z

    Orbital Energies (a.u.)
    -----------------------

    Alpha Occupied:

       1A1   -11.325120     2A1    -0.881192     3A1    -0.473861
       1B1    -0.425396

    Alpha Virtual:

       1B2     0.017522     4A1     0.022637     2B1     0.065586
       5A1     0.067187     2B2     0.084659     6A1     0.107666
       7A1     0.163911     3B1     0.184638     3B2     0.185733
       1A2     0.209639     8A1     0.209765     9A1     0.249413
       4B1     0.261004     4B2     0.264925    10A1     0.294628
      11A1     0.301687     5B1     0.316508     5B2     0.343954
      12A1     0.415663     6B1     0.498371     6B2     0.502010
      13A1     0.537981     2A2     0.538003     7B1     0.556769
       7B2     0.556778    14A1     0.607686     3A2     0.607839
      15A1     0.642586    16A1     0.659223     8B2     0.662918
       8B1     0.668677    17A1     0.679554     4A2     0.733798
      18A1     0.734745     9B1     0.734991     9B2     0.738293
      19A1     0.769176    10B1     0.955996    20A1     0.975192
      10B2     0.988720    11B2     1.095691    11B1     1.100085
      12B1     1.239265    12B2     1.239267    21A1     1.316266
      22A1     1.329247    23A1     1.389779     5A2     1.389890
      13B2     1.403763    13B1     1.409198    24A1     1.464036
       6A2     1.565048    25A1     1.565049     7A2     1.606445
      26A1     1.606594    14B1     1.637887    14B2     1.637907
      15B1     1.662755    15B2     1.668163    27A1     1.709465
       8A2     1.709554    28A1     1.753322    16B2     1.755545
      16B1     1.766966    17B2     1.794574    17B1     1.794718
      29A1     1.815397     9A2     1.816152    30A1     1.831421
      18B2     2.074776    31A1     2.083627    18B1     2.083667
      32A1     2.360669    19B1     2.549811    19B2     2.555607
      33A1     2.706701    10A2     2.747553    34A1     2.747572
      20B2     2.750522    20B1     2.757895    35A1     2.999144
      11A2     2.999144    36A1     3.036869    21B2     3.172581
      21B1     3.180711    37A1     3.283537    12A2     3.283840
      38A1     3.332722    22B2     3.449515    22B1     3.449516
      23B2     3.486370    23B1     3.486370    24B2     3.530998
      24B1     3.538461    39A1     3.565523    25B2     3.634305
      25B1     3.634311    40A1     3.809269    13A2     3.809269
      41A1     3.936581    14A2     3.959818    42A1     3.960214
      26B2     4.016748    26B1     4.032796    43A1     4.077293
      15A2     4.077293    27B2     4.092281    27B1     4.092316
      44A1     4.117055    16A2     4.117715    28B2     4.150434
      28B1     4.150456    45A1     4.253687    17A2     4.319858
      46A1     4.319953    29B2     4.372636    29B1     4.394871
      30B2     4.470308    30B1     4.487492    47A1     4.689071
      48A1     4.858806    18A2     4.858958    49A1     4.894677
      31B2     5.244631    31B1     5.253842    32B2     5.278662
      32B1     5.278676    50A1     5.620262    19A2     5.903462
      51A1     5.903505    33B2     6.113694    33B1     6.125568
      52A1     6.195483    53A1     6.490490    20A2     6.505089
      54A1     6.505795    34B2     6.892672    34B1     6.907543
      55A1     7.563786    35B2     7.803297    35B1     7.817838
      56A1     8.592002    36B2     8.853727    36B1     8.867501
      37B2     8.927250    37B1     8.927250    57A1     8.997877
      21A2     8.997877    38B2     9.020009    38B1     9.020022
      58A1     9.389968    22A2     9.390427    39B2     9.471992
      39B1     9.499444    59A1     9.835836    40B2    10.082398
      40B1    10.082400    60A1    10.295759    61A1    10.352436
      23A2    10.352541    62A1    10.372683    24A2    10.373265
      41B2    10.401560    41B1    10.426722    42B2    10.472136
      42B1    10.473089    63A1    10.696325    25A2    10.719713
      64A1    10.720332    65A1    11.637778    43B2    11.647984
      43B1    11.673133    26A2    12.017139    66A1    12.017239
      44B2    12.882323    44B1    12.901774    67A1    13.175677
      27A2    13.180706    68A1    13.180706    45B2    13.228772
      45B1    13.228772    46B2    13.674416    46B1    13.674416
      28A2    14.017796    69A1    14.017814    70A1    14.349213
      29A2    14.349221    47B2    14.538090    47B1    14.547025
      71A1    14.751372    48B2    14.898828    48B1    14.909135
      72A1    15.129027    30A2    15.283019    73A1    15.283099
      74A1    15.923440    49B2    17.758027    49B1    17.770232
      50B2    17.904204    50B1    17.912073    75A1    18.971372
      76A1    20.641132    77A1    38.516911

    Beta Occupied:

       1A1   -11.302092     2A1    -0.787422     3A1    -0.435450

    Beta Virtual:

       4A1     0.023473     1B2     0.027715     1B1     0.047886
       5A1     0.067758     2B2     0.092454     6A1     0.111170
       2B1     0.123028     7A1     0.165457     3B2     0.186141
       3B1     0.193370     1A2     0.214080     8A1     0.214098
       9A1     0.250909     4B2     0.265704     4B1     0.271746
      10A1     0.298232    11A1     0.309258     5B2     0.351278
       5B1     0.378456    12A1     0.423916     6B2     0.502436
       6B1     0.513492     2A2     0.542507    13A1     0.542537
       7B2     0.561049     7B1     0.561062    14A1     0.617050
       3A2     0.618016    15A1     0.647422     8B2     0.662610
      16A1     0.664193     8B1     0.671126    17A1     0.689388
       9B2     0.739408    18A1     0.751786     4A2     0.754499
       9B1     0.757722    19A1     0.782735    20A1     0.979547
      10B2     0.998484    10B1     1.036979    11B2     1.095602
      11B1     1.108868    12B2     1.242380    12B1     1.242387
      21A1     1.323221    22A1     1.334591     5A2     1.391838
      23A1     1.391986    13B2     1.404412    13B1     1.414863
      24A1     1.474179     6A2     1.573120    25A1     1.573121
       7A2     1.623212    26A1     1.623689    14B2     1.655822
      14B1     1.655984    15B2     1.673283    15B1     1.706907
      27A1     1.729357     8A2     1.735698    16B2     1.755418
      28A1     1.764322    16B1     1.774169    17B2     1.801878
      17B1     1.802201    29A1     1.824372     9A2     1.841838
      30A1     1.860636    18B2     2.075838    31A1     2.094414
      18B1     2.096970    32A1     2.368344    19B2     2.561890
      19B1     2.596284    33A1     2.714099    20B2     2.754064
      10A2     2.754720    34A1     2.755131    20B1     2.784066
      11A2     3.003094    35A1     3.003094    36A1     3.046659
      21B2     3.173908    21B1     3.191399    37A1     3.286616
      12A2     3.287100    38A1     3.335939    22B2     3.450310
      22B1     3.450317    23B2     3.496742    23B1     3.496742
      24B2     3.536641    24B1     3.572861    39A1     3.577350
      25B2     3.642651    25B1     3.642667    40A1     3.815812
      13A2     3.815812    41A1     3.943290    14A2     3.978742
      42A1     3.980724    26B2     4.017541    26B1     4.046498
      43A1     4.096536    15A2     4.096545    44A1     4.125764
      27B2     4.125950    27B1     4.126177    16A2     4.126531
      28B2     4.162506    28B1     4.162649    45A1     4.258533
      46A1     4.346301    17A2     4.346827    29B2     4.374632
      29B1     4.405928    30B2     4.474367    30B1     4.509349
      47A1     4.699386    48A1     4.884237    18A2     4.887409
      49A1     4.909675    31B2     5.246481    31B1     5.268942
      32B2     5.284392    32B1     5.284567    50A1     5.629560
      19A2     5.905079    51A1     5.905144    33B2     6.116921
      33B1     6.146457    52A1     6.200499    53A1     6.499199
      20A2     6.513405    54A1     6.515017    34B2     6.892960
      34B1     6.914291    55A1     7.567172    35B2     7.804791
      35B1     7.828501    56A1     8.606925    36B2     8.862554
      36B1     8.913991    37B2     8.945350    37B1     8.945351
      57A1     9.012908    21A2     9.012908    38B2     9.032541
      38B1     9.032579    58A1     9.400467    22A2     9.401303
      39B2     9.474656    39B1     9.512453    59A1     9.842937
      40B2    10.113898    40B1    10.113914    60A1    10.309918
      61A1    10.370602    23A2    10.371242    62A1    10.394040
      24A2    10.394903    41B2    10.404837    41B1    10.443011
      42B2    10.493267    42B1    10.495723    63A1    10.708312
      25A2    10.739256    64A1    10.741040    65A1    11.644254
      43B2    11.652503    43B1    11.693809    26A2    12.046148
      66A1    12.046533    44B2    12.887508    44B1    12.925638
      67A1    13.181070    27A2    13.181070    68A1    13.183511
      45B2    13.228510    45B1    13.228510    46B2    13.675948
      46B1    13.675948    28A2    14.019316    69A1    14.019347
      70A1    14.348537    29A2    14.348545    47B2    14.537670
      47B1    14.548612    71A1    14.751819    48B2    14.898445
      48B1    14.911895    72A1    15.128600    30A2    15.285129
      73A1    15.285237    74A1    15.924242    49B2    17.758315
      49B1    17.773904    50B2    17.903134    50B1    17.913372
      75A1    18.973059    76A1    20.641227    77A1    38.525850

    Final Occupation by Irrep:
             A1    A2    B1    B2
    DOCC [     3,    0,    0,    0 ]
    SOCC [     0,    0,    1,    0 ]

  Energy converged.

  @UHF Final Energy:   -38.28447805053423

   => Energetics <=

    Nuclear Repulsion Energy =              2.8518207541014187
    One-Electron Energy =                 -56.6420645863090328
    Two-Electron Energy =                  15.5057657816733911
    PCM Polarization Energy =               0.0000000000000000
    Total Energy =                        -38.2844780505342257

    Alert: EFP and PCM quantities not currently incorporated into SCF psivars.
  UHF NO Occupations:
  HONO-2 :    2 A1 1.9994640
  HONO-1 :    3 A1 1.9956743
  HONO-0 :    1 B1 1.0000000
  LUNO+0 :    4 A1 0.0043257
  LUNO+1 :    5 A1 0.0005360
  LUNO+2 :    6 A1 0.0000018
  LUNO+3 :    7 A1 0.0000000

Properties will be evaluated at   0.000000,   0.000000,   0.000000 Bohr

Properties computed using the SCF density matrix

  Nuclear Dipole Moment: (a.u.)
     X:     0.0000      Y:     0.0000      Z:     0.9629

  Electronic Dipole Moment: (a.u.)
     X:     0.0000      Y:     0.0000      Z:    -0.3365

  Dipole Moment: (a.u.)
     X:     0.0000      Y:     0.0000      Z:     0.6264     Total:     0.6264

  Dipole Moment: (Debye)
     X:     0.0000      Y:     0.0000      Z:     1.5920     Total:     1.5920

*** tstop() called on cqc05 at Thu Aug 20 23:46:49 2020
Module time:
	user time   =      37.66 seconds =       0.63 minutes
	system time =       2.27 seconds =       0.04 minutes
	total time  =         39 seconds =       0.65 minutes
Total time:
	user time   =      37.66 seconds =       0.63 minutes
	system time =       2.27 seconds =       0.04 minutes
	total time  =         39 seconds =       0.65 minutes

*** tstart() called on cqc05
*** at Thu Aug 20 23:46:49 2020

	Wfn Parameters:
	--------------------
	Wavefunction         = CCSD
	Number of irreps     = 4
	Number of MOs        = 207
	Number of active MOs = 206
	AO-Basis             = NONE
	Semicanonical        = false
	Reference            = UHF
	Print Level          = 1

	IRREP	# MOs	# FZDC	# DOCC	# SOCC	# VIRT	# FZVR
	-----	-----	------	------	------	------	------
	 A1	   77	    1	    2	    0	    74	    0
	 A2	   30	    0	    0	    0	    30	    0
	 B1	   50	    0	    0	    1	    49	    0
	 B2	   50	    0	    0	    0	    50	    0
	Transforming integrals...
	IWL integrals will be deleted.
	(OO|OO)...
	Presorting SO-basis two-electron integrals.
	Sorting File: SO Ints (nn|nn) nbuckets = 1
	Transforming the one-electron integrals and constructing Fock matrices
	Starting AA/AB first half-transformation.
	Sorting AA/AB half-transformed integrals.
	Starting BB first half-transformation.
	Sorting BB half-transformed integrals.
	First half integral transformation complete.
	Starting AA second half-transformation.
	Starting AB second half-transformation.
	Starting BB second half-transformation.
	Two-electron integral transformation complete.
	(OO|OV)...
	Starting AA second half-transformation.
	Starting AB second half-transformation.
	Starting BB second half-transformation.
	Two-electron integral transformation complete.
	(OO|VV)...
	Starting AA second half-transformation.
	Starting AB second half-transformation.
	Starting BB second half-transformation.
	Two-electron integral transformation complete.
	(OV|OO)...
	Starting AA/AB first half-transformation.
	Sorting AA/AB half-transformed integrals.
	Starting BB first half-transformation.
	Sorting BB half-transformed integrals.
	First half integral transformation complete.
	Starting AA second half-transformation.
	Starting AB second half-transformation.
	Starting BB second half-transformation.
	Two-electron integral transformation complete.
	(OV|OV)...
	Starting AA second half-transformation.
	Starting AB second half-transformation.
	Starting BB second half-transformation.
	Two-electron integral transformation complete.
	(OV|VV)...
	Starting AA second half-transformation.
	Starting AB second half-transformation.
	Starting BB second half-transformation.
	Two-electron integral transformation complete.
	(VV|OO)...
	Starting AA/AB first half-transformation.
	Sorting AA/AB half-transformed integrals.
	Starting BB first half-transformation.
	Sorting BB half-transformed integrals.
	First half integral transformation complete.
	Starting AA second half-transformation.
	Starting AB second half-transformation.
	Starting BB second half-transformation.
	Two-electron integral transformation complete.
	(VV|OV)...
	Starting AA second half-transformation.
	Starting AB second half-transformation.
	Starting BB second half-transformation.
	Two-electron integral transformation complete.
	(VV|VV)...
	Starting AA second half-transformation.
	Starting AB second half-transformation.
	Starting BB second half-transformation.
	Two-electron integral transformation complete.
	Frozen core energy     =    -33.31077079117898

	Size of irrep 0 of <AB|CD> integrals:     30.658 (MW) /    245.267 (MB)
	Size of irrep 1 of <AB|CD> integrals:     21.809 (MW) /    174.471 (MB)
	Size of irrep 2 of <AB|CD> integrals:     26.276 (MW) /    210.207 (MB)
	Size of irrep 3 of <AB|CD> integrals:     26.729 (MW) /    213.831 (MB)
	Total:                                   105.472 (MW) /    843.776 (MB)

	Size of irrep 0 of <ab|cd> integrals:     31.203 (MW) /    249.627 (MB)
	Size of irrep 1 of <ab|cd> integrals:     22.278 (MW) /    178.227 (MB)
	Size of irrep 2 of <ab|cd> integrals:     27.040 (MW) /    216.320 (MB)
	Size of irrep 3 of <ab|cd> integrals:     27.040 (MW) /    216.320 (MB)
	Total:                                   107.562 (MW) /    860.494 (MB)

	Size of irrep 0 of <Ab|Cd> integrals:    128.278 (MW) /   1026.226 (MB)
	Size of irrep 1 of <Ab|Cd> integrals:     88.172 (MW) /    705.377 (MB)
	Size of irrep 2 of <Ab|Cd> integrals:    106.626 (MW) /    853.010 (MB)
	Size of irrep 3 of <Ab|Cd> integrals:    107.537 (MW) /    860.295 (MB)
	Total:                                   430.614 (MW) /   3444.908 (MB)

	Size of irrep 0 of <IA|BC> integrals:      2.222 (MW) /     17.773 (MB)
	Size of irrep 1 of <IA|BC> integrals:      1.027 (MW) /      8.219 (MB)
	Size of irrep 2 of <IA|BC> integrals:      1.763 (MW) /     14.107 (MB)
	Size of irrep 3 of <IA|BC> integrals:      1.344 (MW) /     10.754 (MB)
	Total:                                     6.357 (MW) /     50.852 (MB)

	Size of irrep 0 of <ia|bc> integrals:      1.684 (MW) /     13.469 (MB)
	Size of irrep 1 of <ia|bc> integrals:      0.566 (MW) /      4.531 (MB)
	Size of irrep 2 of <ia|bc> integrals:      1.040 (MW) /      8.320 (MB)
	Size of irrep 3 of <ia|bc> integrals:      1.040 (MW) /      8.320 (MB)
	Total:                                     4.330 (MW) /     34.640 (MB)

	Size of irrep 0 of <Ia|Bc> integrals:      2.243 (MW) /     17.940 (MB)
	Size of irrep 1 of <Ia|Bc> integrals:      1.033 (MW) /      8.263 (MB)
	Size of irrep 2 of <Ia|Bc> integrals:      1.797 (MW) /     14.374 (MB)
	Size of irrep 3 of <Ia|Bc> integrals:      1.348 (MW) /     10.785 (MB)
	Total:                                     6.420 (MW) /     51.362 (MB)

	Size of irrep 0 of <iA|bC> integrals:      1.676 (MW) /     13.410 (MB)
	Size of irrep 1 of <iA|bC> integrals:      0.563 (MW) /      4.507 (MB)
	Size of irrep 2 of <iA|bC> integrals:      1.012 (MW) /      8.096 (MB)
	Size of irrep 3 of <iA|bC> integrals:      1.037 (MW) /      8.296 (MB)
	Total:                                     4.289 (MW) /     34.309 (MB)

	Size of irrep 0 of tIjAb amplitudes:       0.045 (MW) /      0.362 (MB)
	Size of irrep 1 of tIjAb amplitudes:       0.000 (MW) /      0.000 (MB)
	Size of irrep 2 of tIjAb amplitudes:       0.021 (MW) /      0.165 (MB)
	Size of irrep 3 of tIjAb amplitudes:       0.000 (MW) /      0.000 (MB)
	Total:                                     0.066 (MW) /      0.528 (MB)

	Nuclear Rep. energy          =      2.85182075410142
	SCF energy                   =    -38.28447805053423
	One-electron energy          =    -12.64773481566165
	Two-electron (AA) energy     =      1.29060868541286
	Two-electron (BB) energy     =      0.38672741223612
	Two-electron (AB) energy     =      3.14487070455547
	Two-electron energy          =      4.82220680220445
	Reference energy             =    -38.28447805053477

*** tstop() called on cqc05 at Thu Aug 20 23:47:51 2020
Module time:
	user time   =      37.55 seconds =       0.63 minutes
	system time =      23.64 seconds =       0.39 minutes
	total time  =         62 seconds =       1.03 minutes
Total time:
	user time   =      75.21 seconds =       1.25 minutes
	system time =      25.91 seconds =       0.43 minutes
	total time  =        101 seconds =       1.68 minutes

*** tstart() called on cqc05
*** at Thu Aug 20 23:47:51 2020

            **************************
            *                        *
            *        CCENERGY        *
            *                        *
            **************************

    Nuclear Rep. energy (wfn)     =    2.851820754101419
    SCF energy          (wfn)     =  -38.284478050534226
    Reference energy    (file100) =  -38.284478050534766

    Input parameters:
    -----------------
    Wave function   =     CCSD
    Reference wfn   =     UHF
    Brueckner       =     No
    Memory (Mbytes) =     250000.0
    Maxiter         =     50
    R_Convergence   =     1.0e-07
    E_Convergence   =     1.0e-06
    Restart         =     Yes
    DIIS            =     Yes
    AO Basis        =     NONE
    ABCD            =     NEW
    Cache Level     =     2
    Cache Type      =     LRU
    Print Level     =     1
    Num. of threads =     4
    # Amps to Print =     10
    Print MP2 Amps? =     No
    Analyze T2 Amps =     No
    Print Pair Ener =     No
    Local CC        =     No

      * MP2 total energy                      =  -38.396359421245627
      * CCSD total energy                     =  -38.417748911304521
*** Psi4 exiting successfully. Buy a developer a beer!
