                               Psi4 1.2a1.dev939

  ==> Input File <==

--------------------------------------------------------------------------
# Any line starting with the # character is a comment line

memory 32000 mb

molecule molecule {
0 1
S          0.0000000000        0.0000000000        0.3640837090
O          0.0000000000       -1.2543541245       -0.3647800452
O          0.0000000000        1.2543541245       -0.3647800452
}

set {
  reference rhf
  basis aug-cc-pv(D+d)z
  scf_type OUT_OF_CORE
  freeze_core true
}

energy('ccsd')
--------------------------------------------------------------------------

    Molecular point group: c2v

    Geometry (in Angstrom), charge = 0, multiplicity = 1:

       Center              X                  Y                   Z               Mass
    ------------   -----------------  -----------------  -----------------  -----------------
           S          0.000000000000     0.000000000000     0.364533057158    31.972070999000
           O          0.000000000000    -1.254354124500    -0.364330697042    15.994914619560
           O         -0.000000000000     1.254354124500    -0.364330697042    15.994914619560

  Charge       = 0
  Multiplicity = 1
  Basis Set: AUG-CC-PV(D+D)Z
    Blend: AUG-CC-PV(D+D)Z

    Orbital Energies (a.u.)
    -----------------------

    Doubly Occupied:

       1A1   -92.197563     1B2   -20.641941     2A1   -20.641914
       3A1    -9.173903     2B2    -6.856494     1B1    -6.855010
       4A1    -6.852733     5A1    -1.502720     3B2    -1.403255
       6A1    -0.879159     4B2    -0.702882     7A1    -0.692464
       2B1    -0.661586     5B2    -0.542996     1A2    -0.520006
       8A1    -0.496953

  @RHF Final Energy:  -547.23360442547596

   => Energetics <=

    Nuclear Repulsion Energy =            106.8794030201321306
    One-Electron Energy =                -966.9828588641800025
    Two-Electron Energy =                 312.8698514185719546
    PCM Polarization Energy =               0.0000000000000000
    Total Energy =                       -547.2336044254759599
      * MP2 total energy                      = -547.793481452288916
      * CCSD total energy                     = -547.788553634997243
*** Psi4 exiting successfully. Buy a developer a beer!
