                               Psi4 1.2a1.dev939

  ==> Input File <==

--------------------------------------------------------------------------
# Any line starting with the # character is a comment line

memory 32000 mb

molecule molecule {
0 1
S          0.0000000000        0.0000000000        0.3640837090
O          0.0000000000       -1.2543541245       -0.3647800452
O          0.0000000000        1.2543541245       -0.3647800452
}

set {
  reference rhf

  basis aug-cc-pv(5+d)z
  scf_type OUT_OF_CORE
  freeze_core true
}

energy('ccsd')
--------------------------------------------------------------------------

    Molecular point group: c2v

    Geometry (in Angstrom), charge = 0, multiplicity = 1:

       Center              X                  Y                   Z               Mass
    ------------   -----------------  -----------------  -----------------  -----------------
           S          0.000000000000     0.000000000000     0.364533057158    31.972070999000
           O          0.000000000000    -1.254354124500    -0.364330697042    15.994914619560
           O         -0.000000000000     1.254354124500    -0.364330697042    15.994914619560

  Charge       = 0
  Multiplicity = 1
  Basis Set: AUG-CC-PV(5+D)Z
    Blend: AUG-CC-PV(5+D)Z

    Orbital Energies (a.u.)
    -----------------------

    Doubly Occupied:

       1A1   -92.177236     1B2   -20.628012     2A1   -20.627985
       3A1    -9.155898     1B1    -6.838035     2B2    -6.836636
       4A1    -6.835623     5A1    -1.492530     3B2    -1.394025
       6A1    -0.873387     4B2    -0.698347     7A1    -0.688804
       2B1    -0.658465     5B2    -0.544324     1A2    -0.520674
       8A1    -0.498537

  @RHF Final Energy:  -547.32076346112126

   => Energetics <=

    Nuclear Repulsion Energy =            106.8794030201321306
    One-Electron Energy =                -967.4632966045073772
    Two-Electron Energy =                 313.2631301232539727
    Total Energy =                       -547.3207634611212598
      * MP2 total energy                      = -548.062805080972566
      * CCSD total energy                     = -548.041211706210220
*** Psi4 exiting successfully. Buy a developer a beer!
