                               Psi4 1.2a1.dev939

  ==> Input File <==

--------------------------------------------------------------------------
# Any line starting with the # character is a comment line

memory 32000 mb

molecule molecule {
0 1
S          0.0000000000        0.0000000000        0.3640837090
O          0.0000000000       -1.2543541245       -0.3647800452
O          0.0000000000        1.2543541245       -0.3647800452
}

set {
  reference rhf
  basis aug-cc-pv(T+d)z
  scf_type OUT_OF_CORE
  freeze_core true
}

energy('ccsd')
--------------------------------------------------------------------------

    Molecular point group: c2v

    Geometry (in Angstrom), charge = 0, multiplicity = 1:

       Center              X                  Y                   Z               Mass
    ------------   -----------------  -----------------  -----------------  -----------------
           S          0.000000000000     0.000000000000     0.364533057158    31.972070999000
           O          0.000000000000    -1.254354124500    -0.364330697042    15.994914619560
           O         -0.000000000000     1.254354124500    -0.364330697042    15.994914619560

  Charge       = 0
  Multiplicity = 1
  Basis Set: AUG-CC-PV(T+D)Z
    Blend: AUG-CC-PV(T+D)Z

    Orbital Energies (a.u.)
    -----------------------

    Doubly Occupied:

       1A1   -92.182074     1B2   -20.632253     2A1   -20.632226
       3A1    -9.158774     1B1    -6.840477     2B2    -6.839428
       4A1    -6.837868     5A1    -1.494285     3B2    -1.395796
       6A1    -0.874217     4B2    -0.698853     7A1    -0.689183
       2B1    -0.658783     5B2    -0.544335     1A2    -0.520697
       8A1    -0.498377

  @RHF Final Energy:  -547.30228759688578

   => Energetics <=

    Nuclear Repulsion Energy =            106.8794030201321306
    One-Electron Energy =                -967.3681254722417862
    Two-Electron Energy =                 313.1864348552239221
    Total Energy =                       -547.3022875968856624
      * MP2 total energy                      = -547.979803288894345
      * CCSD total energy                     = -547.969333156068615
*** Psi4 exiting successfully. Buy a developer a beer!
