                               Psi4 1.2a1.dev939

  ==> Input File <==

--------------------------------------------------------------------------
# Any line starting with the # character is a comment line

memory 32000 mb

molecule molecule {
0 1
S          0.0000000000        0.0000000000        0.3640837090
O          0.0000000000       -1.2543541245       -0.3647800452
O          0.0000000000        1.2543541245       -0.3647800452
}

set {
  reference rhf
  basis aug-cc-pv(Q+d)z
  scf_type OUT_OF_CORE
  freeze_core true
}

energy('ccsd')
--------------------------------------------------------------------------

    Molecular point group: c2v

    Geometry (in Angstrom), charge = 0, multiplicity = 1:

       Center              X                  Y                   Z               Mass
    ------------   -----------------  -----------------  -----------------  -----------------
           S          0.000000000000     0.000000000000     0.364533057158    31.972070999000
           O          0.000000000000    -1.254354124500    -0.364330697042    15.994914619560
           O         -0.000000000000     1.254354124500    -0.364330697042    15.994914619560

  Charge       = 0
  Multiplicity = 1
  Basis Set: AUG-CC-PV(Q+D)Z
    Blend: AUG-CC-PV(Q+D)Z

    Orbital Energies (a.u.)
    -----------------------

    Doubly Occupied:

       1A1   -92.179744     1B2   -20.628832     2A1   -20.628805
       3A1    -9.156985     1B1    -6.839179     2B2    -6.837750
       4A1    -6.836531     5A1    -1.492960     3B2    -1.394412
       6A1    -0.873635     4B2    -0.698473     7A1    -0.688934
       2B1    -0.658597     5B2    -0.544374     1A2    -0.520611
       8A1    -0.498453

  @RHF Final Energy:  -547.31692669982203

   => Energetics <=

    Nuclear Repulsion Energy =            106.8794030201321306
    One-Electron Energy =                -967.4361077618284526
    Two-Electron Energy =                 313.2397780418742173
    Total Energy =                       -547.3169266998220337
      * MP2 total energy                      = -548.039627191040267
      * CCSD total energy                     = -548.023161537057035
*** Psi4 exiting successfully. Buy a developer a beer!
