                               Psi4 1.2a1.dev938

  ==> Input File <==

--------------------------------------------------------------------------
# Any line starting with the # character is a comment line
memory 250000 mb
molecule molecule{
0 2
P          0.0000000000        0.0000000000        0.0599907894
H          0.0000000000       -1.0156462266       -0.9217514498
H          0.0000000000        1.0156462266       -0.9217514498
}

set {
  reference uhf
  basis aug-cc-pv(d+d)z
  scf_type OUT_OF_CORE
  freeze_core true
}

energy('ccsd')
--------------------------------------------------------------------------

    Molecular point group: c2v

    Geometry (in Angstrom), charge = 0, multiplicity = 2:

       Center              X                  Y                   Z               Mass
    ------------   -----------------  -----------------  -----------------  -----------------
           P          0.000000000000     0.000000000000     0.059984361826    30.973761629000
           H          0.000000000000    -1.015646226600    -0.921757877374     1.007825032070
           H         -0.000000000000     1.015646226600    -0.921757877374     1.007825032070

  Charge       = 0
  Multiplicity = 2
  Basis Set: AUG-CC-PV(D+D)Z
    Blend: AUG-CC-PV(D+D)Z

    Orbital Energies (a.u.)
    -----------------------

    Alpha Occupied:

       1A1   -79.963586     2A1    -7.504876     1B1    -5.409131
       1B2    -5.395970     3A1    -5.394232     4A1    -0.858940
       2B2    -0.525769     5A1    -0.430666     2B1    -0.375423

    Alpha Virtual:

       6A1     0.036835     3B2     0.070047     7A1     0.099250
       4B2     0.099668     3B1     0.102287     8A1     0.165796
       5B2     0.207347     9A1     0.207484     1A2     0.259523
      10A1     0.263963     4B1     0.264295    11A1     0.396833
       6B2     0.399320     7B2     0.477637     2A2     0.481963
      12A1     0.484975     5B1     0.488711    13A1     0.545218
       8B2     0.589575     6B1     0.710554    14A1     0.751957
      15A1     0.801257     9B2     0.821490     3A2     0.831784
       7B1     0.840467    16A1     0.853547    10B2     0.958610
      17A1     1.068566    11B2     1.212565    18A1     1.296637
      12B2     1.803282     4A2     1.867658     8B1     1.915914
      19A1     1.990780    20A1     2.313075    13B2     2.345881
       5A2     4.361841     9B1     4.367510    21A1     4.384421
      22A1     4.408997    14B2     4.493519

    Beta Occupied:

       1A1   -79.956688     2A1    -7.496567     1B2    -5.391172
       3A1    -5.390763     1B1    -5.377611     4A1    -0.789787
       2B2    -0.519237     5A1    -0.407454

    Beta Virtual:

       2B1     0.021189     6A1     0.038648     3B2     0.070540
       4B2     0.100926     7A1     0.101527     3B1     0.141345
       8A1     0.174064     5B2     0.211771     9A1     0.245187
      10A1     0.269035     1A2     0.297007     4B1     0.300887
       6B2     0.401217    11A1     0.418475     7B2     0.477382
      12A1     0.486460     2A2     0.489475     5B1     0.505918
      13A1     0.559597     8B2     0.596767    14A1     0.779134
       6B1     0.780209    15A1     0.808636     9B2     0.832243
      16A1     0.862640     3A2     0.880814     7B1     0.887320
      10B2     0.960693    17A1     1.088832    11B2     1.215810
      18A1     1.318505    12B2     1.800986     4A2     1.872607
       8B1     1.922069    19A1     1.989836    20A1     2.316893
      13B2     2.349342     5A2     4.369747     9B1     4.375055
      21A1     4.393346    22A1     4.410940    14B2     4.494926

    Final Occupation by Irrep:
             A1    A2    B1    B2
    DOCC [     5,    0,    1,    2 ]
    SOCC [     0,    0,    1,    0 ]

  Energy converged.

  @UHF Final Energy:  -341.87799924061386

   => Energetics <=

    Nuclear Repulsion Energy =             11.4991145277394580
    One-Electron Energy =                -495.5663577736999059
    Two-Electron Energy =                 142.1892440053465805
    PCM Polarization Energy =               0.0000000000000000
    Total Energy =                       -341.8779992406139172

    Alert: EFP and PCM quantities not currently incorporated into SCF psivars.
  UHF NO Occupations:
  HONO-2 :    2 B2 1.9994002
  HONO-1 :    5 A1 1.9918654
  HONO-0 :    2 B1 1.0000000
  LUNO+0 :    6 A1 0.0081346
  LUNO+1 :    3 B2 0.0005998
  LUNO+2 :    7 A1 0.0003290
  LUNO+3 :    3 B1 0.0000007

Properties will be evaluated at   0.000000,   0.000000,   0.000000 Bohr

Properties computed using the SCF density matrix

  Nuclear Dipole Moment: (a.u.)
     X:     0.0000      Y:     0.0000      Z:    -1.7834

  Electronic Dipole Moment: (a.u.)
     X:     0.0000      Y:     0.0000      Z:     1.5205

  Dipole Moment: (a.u.)
     X:     0.0000      Y:     0.0000      Z:    -0.2629     Total:     0.2629

  Dipole Moment: (Debye)
     X:     0.0000      Y:     0.0000      Z:    -0.6683     Total:     0.6683

*** tstop() called on cqc05 at Thu Aug 20 19:55:14 2020
Module time:
	user time   =       0.77 seconds =       0.01 minutes
	system time =       0.03 seconds =       0.00 minutes
	total time  =          1 seconds =       0.02 minutes
Total time:
	user time   =       0.77 seconds =       0.01 minutes
	system time =       0.03 seconds =       0.00 minutes
	total time  =          1 seconds =       0.02 minutes

*** tstart() called on cqc05
*** at Thu Aug 20 19:55:14 2020

	Wfn Parameters:
	--------------------
	Wavefunction         = CCSD
	Number of irreps     = 4
	Number of MOs        = 50
	Number of active MOs = 45
	AO-Basis             = NONE
	Semicanonical        = false
	Reference            = UHF
	Print Level          = 1

	IRREP	# MOs	# FZDC	# DOCC	# SOCC	# VIRT	# FZVR
	-----	-----	------	------	------	------	------
	 A1	   22	    3	    2	    0	    17	    0
	 A2	   5	    0	    0	    0	    5	    0
	 B1	   9	    1	    0	    1	    7	    0
	 B2	   14	    1	    1	    0	    12	    0
	Transforming integrals...
	IWL integrals will be deleted.
	(OO|OO)...
	Presorting SO-basis two-electron integrals.
	Sorting File: SO Ints (nn|nn) nbuckets = 1
	Transforming the one-electron integrals and constructing Fock matrices
	Starting AA/AB first half-transformation.
	Sorting AA/AB half-transformed integrals.
	Starting BB first half-transformation.
	Sorting BB half-transformed integrals.
	First half integral transformation complete.
	Starting AA second half-transformation.
	Starting AB second half-transformation.
	Starting BB second half-transformation.
	Two-electron integral transformation complete.
	(OO|OV)...
	Starting AA second half-transformation.
	Starting AB second half-transformation.
	Starting BB second half-transformation.
	Two-electron integral transformation complete.
	(OO|VV)...
	Starting AA second half-transformation.
	Starting AB second half-transformation.
	Starting BB second half-transformation.
	Two-electron integral transformation complete.
	(OV|OO)...
	Starting AA/AB first half-transformation.
	Sorting AA/AB half-transformed integrals.
	Starting BB first half-transformation.
	Sorting BB half-transformed integrals.
	First half integral transformation complete.
	Starting AA second half-transformation.
	Starting AB second half-transformation.
	Starting BB second half-transformation.
	Two-electron integral transformation complete.
	(OV|OV)...
	Starting AA second half-transformation.
	Starting AB second half-transformation.
	Starting BB second half-transformation.
	Two-electron integral transformation complete.
	(OV|VV)...
	Starting AA second half-transformation.
	Starting AB second half-transformation.
	Starting BB second half-transformation.
	Two-electron integral transformation complete.
	(VV|OO)...
	Starting AA/AB first half-transformation.
	Sorting AA/AB half-transformed integrals.
	Starting BB first half-transformation.
	Sorting BB half-transformed integrals.
	First half integral transformation complete.
	Starting AA second half-transformation.
	Starting AB second half-transformation.
	Starting BB second half-transformation.
	Two-electron integral transformation complete.
	(VV|OV)...
	Starting AA second half-transformation.
	Starting AB second half-transformation.
	Starting BB second half-transformation.
	Two-electron integral transformation complete.
	(VV|VV)...
	Starting AA second half-transformation.
	Starting AB second half-transformation.
	Starting BB second half-transformation.
	Two-electron integral transformation complete.
	Frozen core energy     =   -341.84899910269007

	Size of irrep 0 of <AB|CD> integrals:      0.054 (MW) /      0.434 (MB)
	Size of irrep 1 of <AB|CD> integrals:      0.029 (MW) /      0.228 (MB)
	Size of irrep 2 of <AB|CD> integrals:      0.032 (MW) /      0.256 (MB)
	Size of irrep 3 of <AB|CD> integrals:      0.057 (MW) /      0.457 (MB)
	Total:                                     0.172 (MW) /      1.376 (MB)

	Size of irrep 0 of <ab|cd> integrals:      0.058 (MW) /      0.461 (MB)
	Size of irrep 1 of <ab|cd> integrals:      0.033 (MW) /      0.262 (MB)
	Size of irrep 2 of <ab|cd> integrals:      0.038 (MW) /      0.307 (MB)
	Size of irrep 3 of <ab|cd> integrals:      0.060 (MW) /      0.476 (MB)
	Total:                                     0.188 (MW) /      1.507 (MB)

	Size of irrep 0 of <Ab|Cd> integrals:      0.264 (MW) /      2.114 (MB)
	Size of irrep 1 of <Ab|Cd> integrals:      0.122 (MW) /      0.980 (MB)
	Size of irrep 2 of <Ab|Cd> integrals:      0.141 (MW) /      1.125 (MB)
	Size of irrep 3 of <Ab|Cd> integrals:      0.233 (MW) /      1.866 (MB)
	Total:                                     0.761 (MW) /      6.085 (MB)

	Size of irrep 0 of <IA|BC> integrals:      0.027 (MW) /      0.215 (MB)
	Size of irrep 1 of <IA|BC> integrals:      0.010 (MW) /      0.078 (MB)
	Size of irrep 2 of <IA|BC> integrals:      0.013 (MW) /      0.103 (MB)
	Size of irrep 3 of <IA|BC> integrals:      0.022 (MW) /      0.176 (MB)
	Total:                                     0.072 (MW) /      0.572 (MB)

	Size of irrep 0 of <ia|bc> integrals:      0.024 (MW) /      0.192 (MB)
	Size of irrep 1 of <ia|bc> integrals:      0.007 (MW) /      0.052 (MB)
	Size of irrep 2 of <ia|bc> integrals:      0.008 (MW) /      0.066 (MB)
	Size of irrep 3 of <ia|bc> integrals:      0.020 (MW) /      0.160 (MB)
	Total:                                     0.059 (MW) /      0.470 (MB)

	Size of irrep 0 of <Ia|Bc> integrals:      0.028 (MW) /      0.222 (MB)
	Size of irrep 1 of <Ia|Bc> integrals:      0.011 (MW) /      0.084 (MB)
	Size of irrep 2 of <Ia|Bc> integrals:      0.014 (MW) /      0.114 (MB)
	Size of irrep 3 of <Ia|Bc> integrals:      0.022 (MW) /      0.178 (MB)
	Total:                                     0.075 (MW) /      0.598 (MB)

	Size of irrep 0 of <iA|bC> integrals:      0.024 (MW) /      0.189 (MB)
	Size of irrep 1 of <iA|bC> integrals:      0.006 (MW) /      0.048 (MB)
	Size of irrep 2 of <iA|bC> integrals:      0.007 (MW) /      0.057 (MB)
	Size of irrep 3 of <iA|bC> integrals:      0.020 (MW) /      0.158 (MB)
	Total:                                     0.057 (MW) /      0.452 (MB)

	Size of irrep 0 of tIjAb amplitudes:       0.003 (MW) /      0.021 (MB)
	Size of irrep 1 of tIjAb amplitudes:       0.000 (MW) /      0.003 (MB)
	Size of irrep 2 of tIjAb amplitudes:       0.001 (MW) /      0.006 (MB)
	Size of irrep 3 of tIjAb amplitudes:       0.002 (MW) /      0.015 (MB)
	Total:                                     0.006 (MW) /      0.045 (MB)

	Nuclear Rep. energy          =     11.49911452773946
	SCF energy                   =   -341.87799924061386
	One-electron energy          =    -19.14895511232718
	Two-electron (AA) energy     =      1.93507164768431
	Two-electron (BB) energy     =      0.92132408127542
	Two-electron (AB) energy     =      4.76444471770461
	Two-electron energy          =      7.62084044666434
	Reference energy             =   -341.87799924061346

*** tstop() called on cqc05 at Thu Aug 20 19:55:14 2020
Module time:
	user time   =       0.21 seconds =       0.00 minutes
	system time =       0.10 seconds =       0.00 minutes
	total time  =          0 seconds =       0.00 minutes
Total time:
	user time   =       0.98 seconds =       0.02 minutes
	system time =       0.13 seconds =       0.00 minutes
	total time  =          1 seconds =       0.02 minutes

*** tstart() called on cqc05
*** at Thu Aug 20 19:55:14 2020

            **************************
            *                        *
            *        CCENERGY        *
            *                        *
            **************************

    Nuclear Rep. energy (wfn)     =   11.499114527739458
    SCF energy          (wfn)     = -341.877999240613860
    Reference energy    (file100) = -341.877999240613462

    Input parameters:
    -----------------
    Wave function   =     CCSD
    Reference wfn   =     UHF
    Brueckner       =     No
    Memory (Mbytes) =     250000.0
    Maxiter         =     50
    R_Convergence   =     1.0e-07
    E_Convergence   =     1.0e-06
    Restart         =     Yes
    DIIS            =     Yes
    AO Basis        =     NONE
    ABCD            =     NEW
    Cache Level     =     2
    Cache Type      =     LRU
    Print Level     =     1
    Num. of threads =     4
    # Amps to Print =     10
    Print MP2 Amps? =     No
    Analyze T2 Amps =     No
    Print Pair Ener =     No
    Local CC        =     No
    SCS-MP2         =     False
    SCSN-MP2        =     False
    SCS-CCSD        =     False

MP2 correlation energy -0.1134603417500345
                Solving CC Amplitude Equations
                ------------------------------
  Iter             Energy              RMS        T1Diag      D1Diag    New D1Diag    D2Diag
  ----     ---------------------    ---------   ----------  ----------  ----------   --------
     0        -0.113460341750035    0.000e+00    0.000000    0.000000    0.000000    0.000000
     1        -0.133319627306375    5.676e-02    0.010515    0.000000    0.000000    0.000000
     2        -0.140628343852242    2.203e-02    0.017692    0.000000    0.000000    0.000000
     3        -0.141045417670404    6.175e-03    0.020400    0.000000    0.000000    0.000000
     4        -0.141053797343257    1.709e-03    0.020978    0.000000    0.000000    0.000000
     5        -0.141046772486070    6.155e-04    0.021150    0.000000    0.000000    0.000000
     6        -0.141045065024473    1.809e-04    0.021163    0.000000    0.000000    0.000000
     7        -0.141047466320707    5.460e-05    0.021161    0.000000    0.000000    0.000000
     8        -0.141047854784741    1.698e-05    0.021161    0.000000    0.000000    0.000000
     9        -0.141047701575945    4.850e-06    0.021160    0.000000    0.000000    0.000000
    10        -0.141047704660039    1.853e-06    0.021160    0.000000    0.000000    0.000000
    11        -0.141047708698655    6.287e-07    0.021160    0.000000    0.000000    0.000000
    12        -0.141047719700852    2.454e-07    0.021160    0.000000    0.000000    0.000000
    13        -0.141047716075788    8.351e-08    0.021160    0.000000    0.000000    0.000000
    13        -0.141047716075788    8.351e-08    0.021160    0.000000    0.000000    0.000000

    Iterations converged.

    CCSD corr. energy   =   -0.141047716075788
    PPL corr. energy    =    0.037795305694669
    OS PPL corr. energy =    0.033169745416089
    SS PPL corr. energy =    0.004625560278580
    Largest TIA Amplitudes:
              1   3        -0.0195389349
              2  23         0.0160613430
              1   5        -0.0124877976
              3  31         0.0096550416
              2  22        -0.0088916494
              1  11         0.0084079598
              3  30        -0.0083168894
              3  37         0.0079389072
              1   8         0.0067980483
              1   2         0.0060608739

    Largest Tia Amplitudes:
              1   4         0.0225540729
              0   3        -0.0162219919
              2  32         0.0132619652
              2  31        -0.0113524037
              1   3        -0.0089513386
              0   8         0.0085851026
              0   4         0.0085143438
              1  10        -0.0073770164
              0   7         0.0060729180
              2  35         0.0058402711

    Largest TIJAB Amplitudes:
      3   2  17   3        -0.0330825837
      2   1  23   3        -0.0317570562
      3   1  31   4        -0.0286437752
      2   1  23   4         0.0258220631
      2   1  31  17         0.0236067443
      3   1  30   4         0.0200397274
      3   2  31  23         0.0191523444
      3   2  19   3        -0.0171336491
      2   1  30  17        -0.0162411738
      2   1  26   3        -0.0161164130

    Largest Tijab Amplitudes:
      2   1  32   4         0.0252597808
      2   1  31   4        -0.0167191536
      1   0  24  22        -0.0128161807
      2   1  32   9         0.0119349215
      2   1  24  17        -0.0115021939
      2   1  32   3         0.0111978121
      2   1  32  10        -0.0108976752
      2   1  35   4         0.0108355073
      2   0  22  17        -0.0097201617
      1   0  24  23        -0.0096509615

    Largest TIjAb Amplitudes:
      1   1  31  32         0.0666652902
      3   2  31  32        -0.0459476323
      2   0   3  22         0.0459158795
      1   1   4   4         0.0440125416
      1   1  30  32        -0.0420638333
      1   1  31  31        -0.0409063916
      2   1  17  32         0.0375615098
      3   2   3   3        -0.0366338609
      1   1  23  24        -0.0353747565
      2   0   3  23         0.0338902882

    SCF energy       (wfn)                    = -341.877999240613860
    Reference energy (file100)                = -341.877999240613462

    Opposite-spin MP2 correlation energy      =   -0.092774310739251
    Same-spin MP2 correlation energy          =   -0.020686031010780
    MP2 correlation energy                    =   -0.113460341750035
      * MP2 total energy                      = -341.991459582363518

    Opposite-spin CCSD correlation energy     =   -0.118880779180428
    Same-spin CCSD correlation energy         =   -0.022166938192282
    CCSD correlation energy                   =   -0.141047716075788
      * CCSD total energy                     = -342.019046956689238

*** Psi4 exiting successfully. Buy a developer a beer!
