                               Psi4 1.2a1.dev939

  ==> Input File <==

--------------------------------------------------------------------------
# Any line starting with the # character is a comment line
memory 250000 mb
molecule molecule{
0 2
P          0.0000000000        0.0000000000        0.0599907894
H          0.0000000000       -1.0156462266       -0.9217514498
H          0.0000000000        1.0156462266       -0.9217514498
}

set {
  reference uhf
  basis aug-cc-pv(5+d)z
  scf_type OUT_OF_CORE
  freeze_core true
}

energy('ccsd')
--------------------------------------------------------------------------

    Molecular point group: c2v

    Geometry (in Angstrom), charge = 0, multiplicity = 2:

       Center              X                  Y                   Z               Mass
    ------------   -----------------  -----------------  -----------------  -----------------
           P          0.000000000000     0.000000000000     0.059984361826    30.973761629000
           H          0.000000000000    -1.015646226600    -0.921757877374     1.007825032070
           H         -0.000000000000     1.015646226600    -0.921757877374     1.007825032070

  Charge       = 0
  Multiplicity = 2
  Basis Set: AUG-CC-PV(5+D)Z
    Blend: AUG-CC-PV(5+D)Z

    Orbital Energies (a.u.)
    -----------------------

    Alpha Occupied:

       1A1   -79.956731     2A1    -7.499502     1B1    -5.404750
       1B2    -5.390365     3A1    -5.388968     4A1    -0.856966
       2B2    -0.526266     5A1    -0.430670     2B1    -0.376836

    Alpha Virtual:

       6A1     0.022672     3B2     0.040847     7A1     0.058877
       3B1     0.062894     4B2     0.075073     8A1     0.102493
       9A1     0.134440    10A1     0.137643     5B2     0.137789
       1A2     0.142347     4B1     0.144512     6B2     0.194313
      11A1     0.209091     7B2     0.211285    12A1     0.215358
       5B1     0.226393     2A2     0.227409     8B2     0.246069
      13A1     0.251459    14A1     0.311795     6B1     0.315421
       9B2     0.327182    15A1     0.348827     7B1     0.357462
      16A1     0.361953     3A2     0.365729     8B1     0.371596
      10B2     0.421063    17A1     0.425354    11B2     0.453494
       9B1     0.468679     4A2     0.478506    18A1     0.484599
      12B2     0.486574    19A1     0.538021    13B2     0.553815
      20A1     0.575766    14B2     0.580980     5A2     0.596342
      10B1     0.600782    21A1     0.604290    11B1     0.631535
       6A2     0.634502    22A1     0.647306    15B2     0.709774
      23A1     0.734180    16B2     0.741305    24A1     0.894772
       7A2     0.911597    25A1     0.918025    12B1     0.923604
      17B2     0.956100    26A1     0.958299    13B1     0.967056
      14B1     0.974783    18B2     0.993488    27A1     0.999703
       8A2     1.000274    28A1     1.020869    19B2     1.021893
      15B1     1.026751    29A1     1.029007     9A2     1.036662
      20B2     1.042462    10A2     1.051380    16B1     1.054182
      21B2     1.090368    30A1     1.107122    17B1     1.117806
      31A1     1.177462    22B2     1.234821    18B1     1.287855
      23B2     1.308755    11A2     1.312051    19B1     1.335524
      32A1     1.335661    33A1     1.349962    34A1     1.389949
      12A2     1.435277    35A1     1.442465    24B2     1.443789
      25B2     1.458613    26B2     1.494359    20B1     1.501287
      36A1     1.518945    13A2     1.557840    14A2     1.632608
      37A1     1.649073    27B2     1.663231    38A1     1.704994
      21B1     1.720449    28B2     1.749694    29B2     1.775175
      39A1     2.028814    22B1     2.069049    15A2     2.071524
      40A1     2.093071    16A2     2.095497    30B2     2.103942
      23B1     2.113321    41A1     2.142997    24B1     2.179194
      42A1     2.189409    31B2     2.193032    17A2     2.211685
      25B1     2.248165    43A1     2.248540    32B2     2.352060
      26B1     2.361802    44A1     2.366317    18A2     2.383720
      45A1     2.391940    27B1     2.398122    33B2     2.409944
      34B2     2.423565    19A2     2.427824    46A1     2.452147
      35B2     2.465437    28B1     2.481923    47A1     2.483222
      29B1     2.514306    48A1     2.578757    36B2     2.580195
      20A2     2.586803    37B2     2.717776    30B1     2.776153
      49A1     2.794898    50A1     2.813241    38B2     2.855284
      51A1     2.917982    21A2     2.925079    39B2     2.942852
      31B1     2.990482    52A1     3.029748    22A2     3.037120
      32B1     3.089082    53A1     3.104199    40B2     3.127864
      54A1     3.149711    23A2     3.266916    41B2     3.267701
      33B1     3.318160    42B2     3.353897    55A1     3.411702
      24A2     3.454047    34B1     3.583549    43B2     3.583928
      56A1     3.590022    25A2     3.593280    44B2     3.617876
      35B1     3.649494    57A1     3.741171    45B2     3.759547
      36B1     3.774267    46B2     3.900612    26A2     3.905937
      58A1     3.909208    59A1     3.982703    27A2     3.997168
      47B2     4.059103    60A1     4.060495    37B1     4.094829
      48B2     4.168508    28A2     4.364471    49B2     4.416705
      38B1     4.468055    61A1     4.480343    39B1     4.635392
      50B2     4.664110    62A1     4.664516    29A2     4.686925
      63A1     4.705542    40B1     4.733617    30A2     4.806564
      51B2     4.813974    64A1     4.840716    41B1     4.895491
      42B1     4.951634    65A1     4.979455    31A2     4.985679
      52B2     4.988493    66A1     5.103012    53B2     5.179903
      54B2     5.226221    43B1     5.245014    67A1     5.263772
      32A2     5.278442    68A1     5.365234    69A1     5.388910
      44B1     5.408205    55B2     5.411358    33A2     5.454439
      45B1     5.516253    56B2     5.527230    70A1     5.535427
      46B1     5.573057    71A1     5.621413    34A2     5.634298
      57B2     5.635226    72A1     5.660361    58B2     5.765236
      73A1     5.880323    74A1     5.945916    47B1     5.957092
      35A2     6.008269    59B2     6.035479    60B2     6.142832
      48B1     6.209148    75A1     6.243555    61B2     6.268356
      49B1     6.323246    76A1     6.346962    36A2     6.378856
      37A2     6.421335    77A1     6.492230    38A2     6.657573
      50B1     6.692042    78A1     6.748631    62B2     6.858947
      63B2     6.907142    64B2     7.380701    79A1     7.535015
      51B1     7.552348    39A2     7.702052    80A1     7.831296
      65B2     8.012319    66B2     9.143393    81A1     9.268472
      52B1    13.023557    82A1    13.030145    40A2    13.033039
      67B2    13.083527    83A1    13.167285    53B1    13.183614
      41A2    13.198437    68B2    13.235040    84A1    13.235640
      54B1    13.277641    42A2    13.293690    69B2    13.305758
      85A1    13.307412    55B1    13.320870    43A2    13.351865
      86A1    13.356297    70B2    13.361410    87A1    13.396330
      56B1    13.402248    44A2    13.403629    45A2    13.471826
      57B1    13.485801    71B2    13.487942    72B2    13.534923
      88A1    13.626456    89A1    13.680719    73B2    13.696148
      46A2    13.716948    90A1    13.739431    74B2    13.742460
      58B1    13.789731    75B2    14.123096    59B1    14.263607
      91A1    14.278217    47A2    14.326561    76B2    14.406951
      92A1    14.438704    60B1    14.479049    93A1    14.503993
      48A2    14.541734    94A1    14.571904    77B2    14.616065
      78B2    14.741624    49A2    14.935839    61B1    14.957986
      95A1    15.020367    79B2    15.311979    80B2    16.130738
      96A1    16.141594    62B1    17.164933    50A2    17.868219
      81B2    18.035821    97A1    18.039800    63B1    18.437242
      98A1    18.838654    82B2    19.141341    99A1    20.215940
      83B2    20.836041   100A1    60.848967

    Beta Occupied:

       1A1   -79.949009     2A1    -7.491128     3A1    -5.385533
       1B2    -5.385390     1B1    -5.370885     4A1    -0.788887
       2B2    -0.520536     5A1    -0.408457

    Beta Virtual:

       2B1     0.019757     6A1     0.023687     3B2     0.040963
       7A1     0.059555     4B2     0.075284     3B1     0.087055
       8A1     0.106031     9A1     0.137353     5B2     0.140190
      10A1     0.149627     1A2     0.150627     4B1     0.152291
       6B2     0.194583    11A1     0.209879     7B2     0.212149
      12A1     0.218869     2A2     0.229301     5B1     0.236358
       8B2     0.247999    13A1     0.263882    14A1     0.316173
       9B2     0.330410     6B1     0.354310    15A1     0.358822
       7B1     0.360292    16A1     0.389874     3A2     0.400563
       8B1     0.403293    10B2     0.423622    17A1     0.428864
      11B2     0.454110     9B1     0.482748     4A2     0.485596
      12B2     0.487437    18A1     0.488545    19A1     0.543058
      13B2     0.555141    14B2     0.583195    20A1     0.589749
       5A2     0.601966    10B1     0.604327    21A1     0.609474
      11B1     0.641173     6A2     0.641575    22A1     0.650321
      15B2     0.710453    23A1     0.739803    16B2     0.745214
      24A1     0.898202    25A1     0.924195     7A2     0.933753
      12B1     0.944944    17B2     0.956824    26A1     0.981105
      13B1     0.982097    14B1     0.998398    18B2     1.001204
       8A2     1.007150    27A1     1.009440    19B2     1.028494
      28A1     1.032328    29A1     1.038405     9A2     1.043739
      20B2     1.047957    15B1     1.050857    10A2     1.064955
      16B1     1.080408    21B2     1.096047    30A1     1.111939
      17B1     1.126458    31A1     1.181945    22B2     1.237349
      18B1     1.291968    23B2     1.310105    11A2     1.319253
      32A1     1.337145    19B1     1.341247    33A1     1.355541
      34A1     1.394049    12A2     1.436073    24B2     1.444464
      35A1     1.446610    25B2     1.461834    26B2     1.494709
      20B1     1.502628    36A1     1.519892    13A2     1.561734
      14A2     1.636177    37A1     1.650675    27B2     1.664598
      38A1     1.708821    21B1     1.737535    28B2     1.750811
      29B2     1.779836    39A1     2.049481    22B1     2.077598
      15A2     2.078997    40A1     2.098174    30B2     2.105280
      16A2     2.109485    23B1     2.135997    41A1     2.147093
      24B1     2.194403    42A1     2.213210    31B2     2.217139
      17A2     2.226510    43A1     2.256087    25B1     2.265110
      32B2     2.356958    26B1     2.373645    44A1     2.375514
      18A2     2.394971    45A1     2.408619    27B1     2.410204
      33B2     2.417399    34B2     2.427531    19A2     2.433229
      46A1     2.457930    35B2     2.469524    47A1     2.488290
      28B1     2.496313    29B1     2.524107    48A1     2.581926
      36B2     2.583605    20A2     2.598634    37B2     2.719047
      30B1     2.787810    49A1     2.797165    50A1     2.818779
      38B2     2.858347    51A1     2.921209    21A2     2.932563
      39B2     2.951212    31B1     2.995502    52A1     3.035244
      22A2     3.042100    32B1     3.093184    53A1     3.104794
      40B2     3.129655    54A1     3.150664    41B2     3.268281
      23A2     3.268634    33B1     3.327642    42B2     3.355442
      55A1     3.412281    24A2     3.458922    34B1     3.585492
      43B2     3.586988    56A1     3.592443    25A2     3.595412
      44B2     3.618447    35B1     3.650715    57A1     3.743392
      45B2     3.760483    36B1     3.783145    46B2     3.903284
      58A1     3.910490    26A2     3.914323    59A1     3.984443
      27A2     3.998305    47B2     4.060952    60A1     4.065748
      37B1     4.117295    48B2     4.171239    28A2     4.367974
      49B2     4.418480    38B1     4.471505    61A1     4.482599
      39B1     4.646661    50B2     4.674085    62A1     4.675580
      29A2     4.694283    63A1     4.719508    40B1     4.747177
      30A2     4.810675    51B2     4.821685    64A1     4.850541
      41B1     4.904075    42B1     4.960524    65A1     4.981303
      52B2     4.989969    31A2     4.993345    66A1     5.108020
      53B2     5.180815    54B2     5.231126    43B1     5.263835
      67A1     5.273829    32A2     5.296885    68A1     5.378911
      69A1     5.399943    44B1     5.422191    55B2     5.424549
      33A2     5.463416    45B1     5.527057    56B2     5.533261
      70A1     5.540702    46B1     5.580673    71A1     5.625980
      57B2     5.639295    34A2     5.642552    72A1     5.665903
      58B2     5.767144    73A1     5.885044    74A1     5.947727
      47B1     5.959983    35A2     6.008846    59B2     6.038888
      60B2     6.147792    48B1     6.214998    75A1     6.245965
      61B2     6.269344    49B1     6.326596    76A1     6.348994
      36A2     6.383823    37A2     6.427157    77A1     6.493706
      38A2     6.662342    50B1     6.696444    78A1     6.750540
      62B2     6.859689    63B2     6.907578    64B2     7.381860
      79A1     7.535946    51B1     7.558521    39A2     7.705827
      80A1     7.831244    65B2     8.013210    66B2     9.144462
      81A1     9.270951    52B1    13.023211    82A1    13.029812
      40A2    13.032590    67B2    13.082967    83A1    13.167076
      53B1    13.183465    41A2    13.198290    68B2    13.234889
      84A1    13.235429    54B1    13.277901    42A2    13.293740
      69B2    13.305597    85A1    13.310450    55B1    13.321522
      43A2    13.352730    86A1    13.356729    70B2    13.361141
      56B1    13.402272    87A1    13.403664    44A2    13.403914
      45A2    13.479221    71B2    13.487739    57B1    13.493646
      72B2    13.534183    88A1    13.626268    89A1    13.681499
      73B2    13.695634    46A2    13.717782    90A1    13.739807
      74B2    13.742630    58B1    13.789981    75B2    14.123434
      59B1    14.263889    91A1    14.277881    47A2    14.326400
      76B2    14.406453    92A1    14.438210    60B1    14.478285
      93A1    14.503414    48A2    14.541106    94A1    14.570530
      77B2    14.615718    78B2    14.740805    49A2    14.936375
      61B1    14.958729    95A1    15.019837    79B2    15.311311
      80B2    16.130054    96A1    16.141198    62B1    17.172904
      50A2    17.867350    81B2    18.034552    97A1    18.038587
      63B1    18.450178    98A1    18.837945    82B2    19.140416
      99A1    20.218117    83B2    20.839668   100A1    60.854037

    Final Occupation by Irrep:
             A1    A2    B1    B2
    DOCC [     5,    0,    1,    2 ]
    SOCC [     0,    0,    1,    0 ]

  Energy converged.

  @UHF Final Energy:  -341.89308136416867

   => Energetics <=

    Nuclear Repulsion Energy =             11.4991145277394580
    One-Electron Energy =                -495.6535140856280464
    Two-Electron Energy =                 142.2613181937199442
    Total Energy =                       -341.8930813641686655

  UHF NO Occupations:
  HONO-2 :    2 B2 1.9993614
  HONO-1 :    5 A1 1.9906769
  HONO-0 :    2 B1 1.0000000
  LUNO+0 :    6 A1 0.0093231
  LUNO+1 :    3 B2 0.0006386
  LUNO+2 :    7 A1 0.0004209
  LUNO+3 :    3 B1 0.0000043

Properties will be evaluated at   0.000000,   0.000000,   0.000000 Bohr

Properties computed using the SCF density matrix

  Nuclear Dipole Moment: (a.u.)
     X:     0.0000      Y:     0.0000      Z:    -1.7834

  Electronic Dipole Moment: (a.u.)
     X:     0.0000      Y:     0.0000      Z:     1.5295

  Dipole Moment: (a.u.)
     X:     0.0000      Y:     0.0000      Z:    -0.2540     Total:     0.2540

  Dipole Moment: (Debye)
     X:     0.0000      Y:     0.0000      Z:    -0.6455     Total:     0.6455

*** tstop() called on n412-036.vsc4.prov at Fri Oct 30 14:19:09 2020
Module time:
	user time   =     441.61 seconds =       7.36 minutes
	system time =      38.05 seconds =       0.63 minutes
	total time  =        365 seconds =       6.08 minutes
Total time:
	user time   =     441.61 seconds =       7.36 minutes
	system time =      38.05 seconds =       0.63 minutes
	total time  =        365 seconds =       6.08 minutes

*** tstart() called on n412-036.vsc4.prov
*** at Fri Oct 30 14:19:09 2020

	Wfn Parameters:
	--------------------
	Wavefunction         = CCSD
	Number of irreps     = 4
	Number of MOs        = 296
	Number of active MOs = 291
	AO-Basis             = NONE
	Semicanonical        = false
	Reference            = UHF
	Print Level          = 1

	IRREP	# MOs	# FZDC	# DOCC	# SOCC	# VIRT	# FZVR
	-----	-----	------	------	------	------	------
	 A1	   100	    3	    2	    0	    95	    0
	 A2	   50	    0	    0	    0	    50	    0
	 B1	   63	    1	    0	    1	    61	    0
	 B2	   83	    1	    1	    0	    81	    0
	Transforming integrals...
	IWL integrals will be deleted.
	(OO|OO)...
	Presorting SO-basis two-electron integrals.
	Sorting File: SO Ints (nn|nn) nbuckets = 1
	Transforming the one-electron integrals and constructing Fock matrices
	Starting AA/AB first half-transformation.
	Sorting AA/AB half-transformed integrals.
	Starting BB first half-transformation.
	Sorting BB half-transformed integrals.
	First half integral transformation complete.
	Starting AA second half-transformation.
	Starting AB second half-transformation.
	Starting BB second half-transformation.
	Two-electron integral transformation complete.
	(OO|OV)...
	Starting AA second half-transformation.
	Starting AB second half-transformation.
	Starting BB second half-transformation.
	Two-electron integral transformation complete.
	(OO|VV)...
	Starting AA second half-transformation.
	Starting AB second half-transformation.
	Starting BB second half-transformation.
	Two-electron integral transformation complete.
	(OV|OO)...
	Starting AA/AB first half-transformation.
	Sorting AA/AB half-transformed integrals.
	Starting BB first half-transformation.
	Sorting BB half-transformed integrals.
	First half integral transformation complete.
	Starting AA second half-transformation.
	Starting AB second half-transformation.
	Starting BB second half-transformation.
	Two-electron integral transformation complete.
	(OV|OV)...
	Starting AA second half-transformation.
	Starting AB second half-transformation.
	Starting BB second half-transformation.
	Two-electron integral transformation complete.
	(OV|VV)...
	Starting AA second half-transformation.
	Starting AB second half-transformation.
	Starting BB second half-transformation.
	Two-electron integral transformation complete.
	(VV|OO)...
	Starting AA/AB first half-transformation.
	Sorting AA/AB half-transformed integrals.
	Starting BB first half-transformation.
	Sorting BB half-transformed integrals.
	First half integral transformation complete.
	Starting AA second half-transformation.
	Starting AB second half-transformation.
	Starting BB second half-transformation.
	Two-electron integral transformation complete.
	(VV|OV)...
	Starting AA second half-transformation.
	Starting AB second half-transformation.
	Starting BB second half-transformation.
	Two-electron integral transformation complete.
	(VV|VV)...
	Starting AA second half-transformation.
	Starting AB second half-transformation.
	Starting BB second half-transformation.
	Two-electron integral transformation complete.
	Frozen core energy     =   -341.85541753087523

	Size of irrep 0 of <AB|CD> integrals:    115.778 (MW) /    926.221 (MB)
	Size of irrep 1 of <AB|CD> integrals:     93.915 (MW) /    751.324 (MB)
	Size of irrep 2 of <AB|CD> integrals:     96.924 (MW) /    775.392 (MB)
	Size of irrep 3 of <AB|CD> integrals:    115.455 (MW) /    923.640 (MB)
	Total:                                   422.072 (MW) /   3376.577 (MB)

	Size of irrep 0 of <ab|cd> integrals:    117.094 (MW) /    936.752 (MB)
	Size of irrep 1 of <ab|cd> integrals:     95.492 (MW) /    763.936 (MB)
	Size of irrep 2 of <ab|cd> integrals:     98.804 (MW) /    790.429 (MB)
	Size of irrep 3 of <ab|cd> integrals:    116.532 (MW) /    932.256 (MB)
	Total:                                   427.922 (MW) /   3423.373 (MB)

	Size of irrep 0 of <Ab|Cd> integrals:    478.209 (MW) /   3825.675 (MB)
	Size of irrep 1 of <Ab|Cd> integrals:    378.808 (MW) /   3030.467 (MB)
	Size of irrep 2 of <Ab|Cd> integrals:    391.446 (MW) /   3131.570 (MB)
	Size of irrep 3 of <Ab|Cd> integrals:    463.972 (MW) /   3711.773 (MB)
	Total:                                  1712.436 (MW) /  13699.485 (MB)

	Size of irrep 0 of <IA|BC> integrals:      7.240 (MW) /     57.919 (MB)
	Size of irrep 1 of <IA|BC> integrals:      4.690 (MW) /     37.524 (MB)
	Size of irrep 2 of <IA|BC> integrals:      5.257 (MW) /     42.058 (MB)
	Size of irrep 3 of <IA|BC> integrals:      6.597 (MW) /     52.779 (MB)
	Total:                                    23.785 (MW) /    190.280 (MB)

	Size of irrep 0 of <ia|bc> integrals:      5.943 (MW) /     47.544 (MB)
	Size of irrep 1 of <ia|bc> integrals:      3.166 (MW) /     25.329 (MB)
	Size of irrep 2 of <ia|bc> integrals:      3.459 (MW) /     27.673 (MB)
	Size of irrep 3 of <ia|bc> integrals:      5.549 (MW) /     44.389 (MB)
	Total:                                    18.117 (MW) /    144.935 (MB)

	Size of irrep 0 of <Ia|Bc> integrals:      7.282 (MW) /     58.256 (MB)
	Size of irrep 1 of <Ia|Bc> integrals:      4.730 (MW) /     37.836 (MB)
	Size of irrep 2 of <Ia|Bc> integrals:      5.322 (MW) /     42.577 (MB)
	Size of irrep 3 of <Ia|Bc> integrals:      6.613 (MW) /     52.902 (MB)
	Total:                                    23.946 (MW) /    191.572 (MB)

	Size of irrep 0 of <iA|bC> integrals:      5.926 (MW) /     47.410 (MB)
	Size of irrep 1 of <iA|bC> integrals:      3.134 (MW) /     25.068 (MB)
	Size of irrep 2 of <iA|bC> integrals:      3.403 (MW) /     27.224 (MB)
	Size of irrep 3 of <iA|bC> integrals:      5.536 (MW) /     44.286 (MB)
	Total:                                    17.999 (MW) /    143.989 (MB)

	Size of irrep 0 of tIjAb amplitudes:       0.109 (MW) /      0.875 (MB)
	Size of irrep 1 of tIjAb amplitudes:       0.019 (MW) /      0.156 (MB)

      * MP2 total energy                      = -342.045453104340140
      * CCSD total energy                     = -342.068326306841584
*** Psi4 exiting successfully. Buy a developer a beer!
