                               Psi4 1.2a1.dev938

  ==> Input File <==

--------------------------------------------------------------------------
# Any line starting with the # character is a comment line
memory 250000 mb
molecule molecule{
0 2
P          0.0000000000        0.0000000000        0.0599907894
H          0.0000000000       -1.0156462266       -0.9217514498
H          0.0000000000        1.0156462266       -0.9217514498
}

set {
  reference uhf
  basis aug-cc-pv(q+d)z
  scf_type OUT_OF_CORE
  freeze_core true
}

energy('ccsd')
--------------------------------------------------------------------------

    Molecular point group: c2v

    Geometry (in Angstrom), charge = 0, multiplicity = 2:

       Center              X                  Y                   Z               Mass
    ------------   -----------------  -----------------  -----------------  -----------------
           P          0.000000000000     0.000000000000     0.059984361826    30.973761629000
           H          0.000000000000    -1.015646226600    -0.921757877374     1.007825032070
           H         -0.000000000000     1.015646226600    -0.921757877374     1.007825032070

  Charge       = 0
  Multiplicity = 2
  Basis Set: AUG-CC-PV(Q+D)Z
    Blend: AUG-CC-PV(Q+D)Z

    Orbital Energies (a.u.)
    -----------------------

    Alpha Occupied:

       1A1   -79.956129     2A1    -7.499620     1B1    -5.404302
       1B2    -5.390375     3A1    -5.388817     4A1    -0.857032
       2B2    -0.526268     5A1    -0.430617     2B1    -0.376816

    Alpha Virtual:

       6A1     0.026434     3B2     0.047474     7A1     0.065195
       3B1     0.070351     4B2     0.079000     8A1     0.121125
       9A1     0.141398    10A1     0.146802     1A2     0.151179
       5B2     0.151689     4B1     0.153375     6B2     0.208931
      11A1     0.239774     7B2     0.241558    12A1     0.242488
       2A2     0.261205     5B1     0.264535    13A1     0.280148
       8B2     0.283678     6B1     0.362699    14A1     0.374080
       9B2     0.401012    15A1     0.401775     3A2     0.405386
       7B1     0.412639    16A1     0.417246     8B1     0.423680
      17A1     0.495386    10B2     0.496571    11B2     0.517440
       9B1     0.533336    12B2     0.539372     4A2     0.544119
      18A1     0.546443    19A1     0.650630    20A1     0.675525
      13B2     0.689492     5A2     0.723254    10B1     0.738143
      14B2     0.741878    21A1     0.771284    22A1     0.786126
      11B1     0.789195     6A2     0.809971    23A1     0.888216
      15B2     0.907263    16B2     0.925229     7A2     1.040940
      24A1     1.043058    12B1     1.053614    17B2     1.064646
      25A1     1.086426    18B2     1.175883    13B1     1.189637
       8A2     1.195808    26A1     1.209246    14B1     1.246317
      27A1     1.251925    19B2     1.270763    15B1     1.291683
      28A1     1.319289     9A2     1.364691    29A1     1.369055
      16B1     1.375241    20B2     1.403510    21B2     1.416596
      10A2     1.420402    30A1     1.465956    17B1     1.469356
      31A1     1.524682    32A1     1.610892    18B1     1.663022
      11A2     1.671446    22B2     1.711837    19B1     1.725594
      23B2     1.760740    33A1     1.763450    34A1     1.807479
      24B2     1.813369    25B2     1.890065    35A1     1.949687
      12A2     1.972587    26B2     2.059060    20B1     2.077543
      13A2     2.087852    36A1     2.089085    27B2     2.089757
      21B1     2.165464    37A1     2.209035    14A2     2.215192
      28B2     2.258583    38A1     2.260156    29B2     2.375935
      39A1     2.453568    15A2     2.546204    22B1     2.573904
      40A1     2.621757    16A2     2.705637    30B2     2.729634
      41A1     2.759958    23B1     2.808583    17A2     2.891380
      42A1     2.904401    31B2     2.939804    24B1     2.968524
      25B1     3.072372    43A1     3.138878    44A1     3.152791
      32B2     3.171971    26B1     3.173570    33B2     3.207484
      18A2     3.233827    45A1     3.254599    34B2     3.299241
      46A1     3.409065    47A1     3.424066    19A2     3.497343
      35B2     3.502798    27B1     3.521767    20A2     3.587362
      28B1     3.620666    36B2     3.688483    48A1     3.697606
      49A1     3.980176    37B2     4.014429    29B1     4.078609
      50A1     4.229304    38B2     4.247011    21A2     4.348094
      51A1     4.479846    39B2     4.543086    30B1     6.078867
      31B1     6.626112    40B2     6.633767    22A2     6.674676
      52A1     6.691067    41B2     6.759804    53A1     6.785573
      23A2     6.859440    32B1     6.974381    54A1     7.034299
      42B2     7.039131    24A2     7.071637    33B1     7.098757
      43B2     7.225008    55A1     7.330318    56A1     7.363712
      44B2     7.605843    34B1     7.873547    25A2     7.897962
      57A1     7.980502    58A1     8.055438    45B2     8.246668
      59A1     8.251430    46B2     8.559157    26A2     8.569401
      27A2     8.615741    35B1     8.625726    60A1     8.661110
      47B2     8.668918    36B1     8.728119    61A1     8.818077
      48B2     8.991766    28A2     9.282427    37B1     9.327674
      49B2     9.436255    62A1     9.436933    63A1     9.721444
      50B2     9.754596    64A1    10.363063    51B2    11.466587
      65A1    17.248400

    Beta Occupied:

       1A1   -79.949182     2A1    -7.491096     1B2    -5.385557
       3A1    -5.385484     1B1    -5.371529     4A1    -0.788974
       2B2    -0.520544     5A1    -0.408414

    Beta Virtual:

       2B1     0.020321     6A1     0.027668     3B2     0.047631
       7A1     0.066089     4B2     0.079290     3B1     0.097299
       8A1     0.125276     9A1     0.146495     5B2     0.154693
      10A1     0.159343     1A2     0.161138     4B1     0.162703
       6B2     0.209308    11A1     0.240635     7B2     0.242644
      12A1     0.249035     2A2     0.264687     5B1     0.274952
       8B2     0.285614    13A1     0.293624    14A1     0.381169
       9B2     0.405222     6B1     0.410246    15A1     0.415144
       7B1     0.427825    16A1     0.443787     3A2     0.445914
       8B1     0.449589    10B2     0.500811    17A1     0.502385
      11B2     0.520309    12B2     0.538788     9B1     0.547440
      18A1     0.549248     4A2     0.551275    19A1     0.664539
      20A1     0.677924    13B2     0.689842     5A2     0.730500
      10B1     0.743389    14B2     0.746700    21A1     0.777092
      22A1     0.788756    11B1     0.795224     6A2     0.814620
      23A1     0.893087    15B2     0.910059    16B2     0.926575
       7A2     1.065221    17B2     1.065758    24A1     1.078683
      12B1     1.080584    25A1     1.090438    18B2     1.176359
      26A1     1.212179     8A2     1.213974    13B1     1.219973
      14B1     1.261988    27A1     1.273779    19B2     1.296937
      28A1     1.328129    15B1     1.339934    29A1     1.376139
       9A2     1.377526    16B1     1.388654    20B2     1.409552
      21B2     1.419916    10A2     1.426226    30A1     1.472783
      17B1     1.480014    31A1     1.531045    32A1     1.612559
      18B1     1.668174    11A2     1.680282    22B2     1.714930
      19B1     1.732913    23B2     1.763317    33A1     1.766509
      34A1     1.812033    24B2     1.814811    25B2     1.891356
      35A1     1.957491    12A2     1.973785    26B2     2.060488
      20B1     2.078952    36A1     2.089648    27B2     2.090980
      13A2     2.096693    21B1     2.181295    37A1     2.212313
      14A2     2.217027    28B2     2.260900    38A1     2.271576
      29B2     2.380441    39A1     2.469565    15A2     2.558573
      22B1     2.589124    40A1     2.623012    16A2     2.711517
      30B2     2.731719    41A1     2.763811    23B1     2.816896
      17A2     2.903074    42A1     2.914267    31B2     2.950977
      24B1     2.978139    25B1     3.090213    43A1     3.143948
      44A1     3.166829    32B2     3.182838    26B1     3.194678
      33B2     3.210807    18A2     3.243408    45A1     3.257940
      34B2     3.298976    46A1     3.424012    47A1     3.437792
      19A2     3.514203    35B2     3.518925    27B1     3.536689
      20A2     3.596174    28B1     3.630242    36B2     3.688996
      48A1     3.705024    49A1     3.982028    37B2     4.016474
      29B1     4.092827    50A1     4.231535    38B2     4.250513
      21A2     4.359275    51A1     4.482429    39B2     4.545047
      30B1     6.102918    31B1     6.626450    40B2     6.634043
      22A2     6.675042    52A1     6.691275    41B2     6.760035
      53A1     6.785921    23A2     6.860832    32B1     6.977275
      54A1     7.036736    42B2     7.040039    24A2     7.075374
      33B1     7.102336    43B2     7.226108    55A1     7.331579
      56A1     7.364590    44B2     7.606070    34B1     7.880102
      25A2     7.904766    57A1     7.990029    58A1     8.055910
      45B2     8.245808    59A1     8.251259    46B2     8.557861
      26A2     8.569007    27A2     8.615944    35B1     8.626703
      60A1     8.660319    47B2     8.669155    36B1     8.727529
      61A1     8.816989    48B2     8.991122    28A2     9.282408
      37B1     9.327920    49B2     9.435200    62A1     9.436145
      63A1     9.720923    50B2     9.754067    64A1    10.363853
      51B2    11.468157    65A1    17.256114

    Final Occupation by Irrep:
             A1    A2    B1    B2
    DOCC [     5,    0,    1,    2 ]
    SOCC [     0,    0,    1,    0 ]

  Energy converged.

  @UHF Final Energy:  -341.89248955373853

   => Energetics <=

    Nuclear Repulsion Energy =             11.4991145277394580
    One-Electron Energy =                -495.6524505505025218
    Two-Electron Energy =                 142.2608464690245285
    Total Energy =                       -341.8924895537385282

  UHF NO Occupations:
  HONO-2 :    2 B2 1.9993627
  HONO-1 :    5 A1 1.9907013
  HONO-0 :    2 B1 1.0000000
  LUNO+0 :    6 A1 0.0092987
  LUNO+1 :    3 B2 0.0006373
  LUNO+2 :    7 A1 0.0004203
  LUNO+3 :    3 B1 0.0000026

Properties will be evaluated at   0.000000,   0.000000,   0.000000 Bohr

Properties computed using the SCF density matrix

  Nuclear Dipole Moment: (a.u.)
     X:     0.0000      Y:     0.0000      Z:    -1.7834

  Electronic Dipole Moment: (a.u.)
     X:     0.0000      Y:     0.0000      Z:     1.5290

  Dipole Moment: (a.u.)
     X:     0.0000      Y:     0.0000      Z:    -0.2545     Total:     0.2545

  Dipole Moment: (Debye)
     X:     0.0000      Y:     0.0000      Z:    -0.6467     Total:     0.6467

*** tstop() called on cqc05 at Thu Aug 20 21:35:13 2020
Module time:
	user time   =      20.01 seconds =       0.33 minutes
	system time =       1.55 seconds =       0.03 minutes
	total time  =         21 seconds =       0.35 minutes
Total time:
	user time   =      20.01 seconds =       0.33 minutes
	system time =       1.55 seconds =       0.03 minutes
	total time  =         21 seconds =       0.35 minutes

*** tstart() called on cqc05
*** at Thu Aug 20 21:35:13 2020

	Wfn Parameters:
	--------------------
	Wavefunction         = CCSD
	Number of irreps     = 4
	Number of MOs        = 181
	Number of active MOs = 176
	AO-Basis             = NONE
	Semicanonical        = false
	Reference            = UHF
	Print Level          = 1

	IRREP	# MOs	# FZDC	# DOCC	# SOCC	# VIRT	# FZVR
	-----	-----	------	------	------	------	------
	 A1	   65	    3	    2	    0	    60	    0
	 A2	   28	    0	    0	    0	    28	    0
	 B1	   37	    1	    0	    1	    35	    0
	 B2	   51	    1	    1	    0	    49	    0
	Transforming integrals...
	IWL integrals will be deleted.
	(OO|OO)...
	Presorting SO-basis two-electron integrals.
	Sorting File: SO Ints (nn|nn) nbuckets = 1
	Transforming the one-electron integrals and constructing Fock matrices
	Starting AA/AB first half-transformation.
	Sorting AA/AB half-transformed integrals.
	Starting BB first half-transformation.
	Sorting BB half-transformed integrals.
	First half integral transformation complete.
	Starting AA second half-transformation.
	Starting AB second half-transformation.
	Starting BB second half-transformation.
	Two-electron integral transformation complete.
	(OO|OV)...
	Starting AA second half-transformation.
	Starting AB second half-transformation.
	Starting BB second half-transformation.
	Two-electron integral transformation complete.
	(OO|VV)...
	Starting AA second half-transformation.
	Starting AB second half-transformation.
	Starting BB second half-transformation.
	Two-electron integral transformation complete.
	(OV|OO)...
	Starting AA/AB first half-transformation.
	Sorting AA/AB half-transformed integrals.
	Starting BB first half-transformation.
	Sorting BB half-transformed integrals.
	First half integral transformation complete.
	Starting AA second half-transformation.
	Starting AB second half-transformation.
	Starting BB second half-transformation.
	Two-electron integral transformation complete.
	(OV|OV)...
	Starting AA second half-transformation.
	Starting AB second half-transformation.
	Starting BB second half-transformation.
	Two-electron integral transformation complete.
	(OV|VV)...
	Starting AA second half-transformation.
	Starting AB second half-transformation.
	Starting BB second half-transformation.
	Two-electron integral transformation complete.
	(VV|OO)...
	Starting AA/AB first half-transformation.
	Sorting AA/AB half-transformed integrals.
	Starting BB first half-transformation.
	Sorting BB half-transformed integrals.
	First half integral transformation complete.
	Starting AA second half-transformation.
	Starting AB second half-transformation.
	Starting BB second half-transformation.
	Two-electron integral transformation complete.
	(VV|OV)...
	Starting AA second half-transformation.
	Starting AB second half-transformation.
	Starting BB second half-transformation.
	Two-electron integral transformation complete.
	(VV|VV)...
	Starting AA second half-transformation.
	Starting AB second half-transformation.
	Starting BB second half-transformation.
	Two-electron integral transformation complete.
	Frozen core energy     =   -341.85512839837673

	Size of irrep 0 of <AB|CD> integrals:     15.359 (MW) /    122.868 (MB)
	Size of irrep 1 of <AB|CD> integrals:     11.526 (MW) /     92.208 (MB)
	Size of irrep 2 of <AB|CD> integrals:     12.055 (MW) /     96.438 (MB)
	Size of irrep 3 of <AB|CD> integrals:     15.366 (MW) /    122.931 (MB)
	Total:                                    54.306 (MW) /    434.446 (MB)

	Size of irrep 0 of <ab|cd> integrals:     15.634 (MW) /    125.073 (MB)
	Size of irrep 1 of <ab|cd> integrals:     11.861 (MW) /     94.889 (MB)
	Size of irrep 2 of <ab|cd> integrals:     12.475 (MW) /     99.800 (MB)
	Size of irrep 3 of <ab|cd> integrals:     15.587 (MW) /    124.694 (MB)
	Total:                                    55.557 (MW) /    444.456 (MB)

	Size of irrep 0 of <Ab|Cd> integrals:     64.722 (MW) /    517.776 (MB)
	Size of irrep 1 of <Ab|Cd> integrals:     46.772 (MW) /    374.175 (MB)
	Size of irrep 2 of <Ab|Cd> integrals:     49.056 (MW) /    392.448 (MB)
	Size of irrep 3 of <Ab|Cd> integrals:     61.905 (MW) /    495.243 (MB)
	Total:                                   222.455 (MW) /   1779.643 (MB)

	Size of irrep 0 of <IA|BC> integrals:      1.634 (MW) /     13.072 (MB)
	Size of irrep 1 of <IA|BC> integrals:      0.951 (MW) /      7.605 (MB)
	Size of irrep 2 of <IA|BC> integrals:      1.097 (MW) /      8.777 (MB)
	Size of irrep 3 of <IA|BC> integrals:      1.458 (MW) /     11.666 (MB)
	Total:                                     5.140 (MW) /     41.120 (MB)

	Size of irrep 0 of <ia|bc> integrals:      1.366 (MW) /     10.926 (MB)
	Size of irrep 1 of <ia|bc> integrals:      0.634 (MW) /      5.070 (MB)
	Size of irrep 2 of <ia|bc> integrals:      0.706 (MW) /      5.651 (MB)
	Size of irrep 3 of <ia|bc> integrals:      1.248 (MW) /      9.981 (MB)
	Total:                                     3.953 (MW) /     31.627 (MB)

	Size of irrep 0 of <Ia|Bc> integrals:      1.649 (MW) /     13.194 (MB)
	Size of irrep 1 of <Ia|Bc> integrals:      0.964 (MW) /      7.714 (MB)
	Size of irrep 2 of <Ia|Bc> integrals:      1.121 (MW) /      8.965 (MB)
	Size of irrep 3 of <Ia|Bc> integrals:      1.463 (MW) /     11.708 (MB)
	Total:                                     5.198 (MW) /     41.581 (MB)

	Size of irrep 0 of <iA|bC> integrals:      1.360 (MW) /     10.877 (MB)
	Size of irrep 1 of <iA|bC> integrals:      0.622 (MW) /      4.979 (MB)
	Size of irrep 2 of <iA|bC> integrals:      0.686 (MW) /      5.491 (MB)
	Size of irrep 3 of <iA|bC> integrals:      1.243 (MW) /      9.945 (MB)
	Total:                                     3.911 (MW) /     31.292 (MB)

	Size of irrep 0 of tIjAb amplitudes:       0.040 (MW) /      0.322 (MB)
	Size of irrep 1 of tIjAb amplitudes:       0.007 (MW) /      0.055 (MB)
	Size of irrep 2 of tIjAb amplitudes:       0.014 (MW) /      0.112 (MB)
	Size of irrep 3 of tIjAb amplitudes:       0.031 (MW) /      0.252 (MB)
	Total:                                     0.093 (MW) /      0.740 (MB)

	Nuclear Rep. energy          =     11.49911452773946
	SCF energy                   =   -341.89248955373853
	One-electron energy          =    -19.16428596342099
	Two-electron (AA) energy     =      1.93564859744805
	Two-electron (BB) energy     =      0.92249363711106
	Two-electron (AB) energy     =      4.76966804576239
	Two-electron energy          =      7.62781028032150
	Reference energy             =   -341.89248955373677

*** tstop() called on cqc05 at Thu Aug 20 21:35:47 2020
Module time:
	user time   =      20.69 seconds =       0.34 minutes
	system time =      13.62 seconds =       0.23 minutes
	total time  =         34 seconds =       0.57 minutes
Total time:
	user time   =      40.70 seconds =       0.68 minutes
	system time =      15.17 seconds =       0.25 minutes
	total time  =         55 seconds =       0.92 minutes

*** tstart() called on cqc05
*** at Thu Aug 20 21:35:47 2020

            **************************
            *                        *
            *        CCENERGY        *
            *                        *
            **************************

    Nuclear Rep. energy (wfn)     =   11.499114527739458
    SCF energy          (wfn)     = -341.892489553738528
    Reference energy    (file100) = -341.892489553736766

    Input parameters:
    -----------------
    Wave function   =     CCSD
    Reference wfn   =     UHF
    Brueckner       =     No
    Memory (Mbytes) =     250000.0
    Maxiter         =     50
    R_Convergence   =     1.0e-07
    E_Convergence   =     1.0e-06
    Restart         =     Yes
    DIIS            =     Yes
    AO Basis        =     NONE
    ABCD            =     NEW
    Cache Level     =     2
    Cache Type      =     LRU
    Print Level     =     1
    Num. of threads =     4
    # Amps to Print =     10
    Print MP2 Amps? =     No
    Analyze T2 Amps =     No
    Print Pair Ener =     No
    Local CC        =     No
    SCS-MP2         =     False
    SCSN-MP2        =     False
    SCS-CCSD        =     False

MP2 correlation energy -0.1485572204858649
                Solving CC Amplitude Equations
                ------------------------------
  Iter             Energy              RMS        T1Diag      D1Diag    New D1Diag    D2Diag
  ----     ---------------------    ---------   ----------  ----------  ----------   --------
     0        -0.148557220485866    0.000e+00    0.000000    0.000000    0.000000    0.000000
     1        -0.165336796510046    5.575e-02    0.012180    0.000000    0.000000    0.000000
     2        -0.172664338795768    2.188e-02    0.019414    0.000000    0.000000    0.000000
     3        -0.173075540394224    6.539e-03    0.022196    0.000000    0.000000    0.000000
     4        -0.173062706849212    2.231e-03    0.023134    0.000000    0.000000    0.000000
     5        -0.173049196930103    6.908e-04    0.023335    0.000000    0.000000    0.000000
     6        -0.173046867871518    2.304e-04    0.023376    0.000000    0.000000    0.000000
     7        -0.173048890704968    8.476e-05    0.023375    0.000000    0.000000    0.000000
     8        -0.173049776909172    2.571e-05    0.023375    0.000000    0.000000    0.000000

      * MP2 total energy                      = -342.041046774222650
      * CCSD total energy                     = -342.065539144594595
*** Psi4 exiting successfully. Buy a developer a beer!
