                               Psi4 1.2a1.dev939

  ==> Input File <==

--------------------------------------------------------------------------
# Any line starting with the # character is a comment line

memory 32000 mb

molecule molecule {
0 1
C          0.0000000000        0.0000000000       -1.1198483656
S          0.0000000000        0.0000000000        0.4195414448
}

set {
  reference rhf
  basis aug-cc-pv(D+d)z
  scf_type OUT_OF_CORE
  freeze_core true
}

energy('ccsd')
--------------------------------------------------------------------------

    Molecular point group: c2v

    Geometry (in Angstrom), charge = 0, multiplicity = 1:

       Center              X                  Y                   Z               Mass
    ------------   -----------------  -----------------  -----------------  -----------------
           C          0.000000000000     0.000000000000    -1.119289567106    12.000000000000
           S          0.000000000000     0.000000000000     0.420100243294    31.972070999000

  Charge       = 0
  Multiplicity = 1
  Basis Set: AUG-CC-PV(D+D)Z
    Blend: AUG-CC-PV(D+D)Z

    Orbital Energies (a.u.)
    -----------------------

    Doubly Occupied:

       1A1   -92.004388     2A1   -11.364491     3A1    -9.011413
       4A1    -6.692271     1B2    -6.690272     1B1    -6.690272
       5A1    -1.104365     6A1    -0.695433     7A1    -0.472000
       2B2    -0.463308     2B1    -0.463308

  @RHF Final Energy:  -435.33861821292044

   => Energetics <=

    Nuclear Repulsion Energy =             33.0007459328574555
    One-Electron Energy =                -665.3756866818029039
    Two-Electron Energy =                 197.0363225360249544
    Total Energy =                       -435.3386182129204371
      * MP2 total energy                      = -435.594265936138243
      * CCSD total energy                     = -435.612205858608604
*** Psi4 exiting successfully. Buy a developer a beer!
