                               Psi4 1.2a1.dev939

  ==> Input File <==

--------------------------------------------------------------------------
# Any line starting with the # character is a comment line

memory 32000 mb

molecule molecule {
0 1
C          0.0000000000        0.0000000000       -1.1198483656
S          0.0000000000        0.0000000000        0.4195414448
}

set {
  reference rhf
  basis aug-cc-pv(Q+d)z
  scf_type OUT_OF_CORE
  freeze_core true
}

energy('ccsd')
--------------------------------------------------------------------------

    Molecular point group: c2v

    Geometry (in Angstrom), charge = 0, multiplicity = 1:

       Center              X                  Y                   Z               Mass
    ------------   -----------------  -----------------  -----------------  -----------------
           C          0.000000000000     0.000000000000    -1.119289567106    12.000000000000
           S          0.000000000000     0.000000000000     0.420100243294    31.972070999000

  Charge       = 0
  Multiplicity = 1
  Basis Set: AUG-CC-PV(Q+D)Z
    Blend: AUG-CC-PV(Q+D)Z

    Orbital Energies (a.u.)
    -----------------------

    Doubly Occupied:

       1A1   -92.000400     2A1   -11.356134     3A1    -9.007075
       4A1    -6.687223     1B2    -6.686582     1B1    -6.686582
       5A1    -1.098768     6A1    -0.693038     7A1    -0.470929
       2B2    -0.462179     2B1    -0.462179

  @RHF Final Energy:  -435.36090730576331

   => Energetics <=

    Nuclear Repulsion Energy =             33.0007459328574555
    One-Electron Energy =                -665.5011281241677352
    Two-Electron Energy =                 197.1394748855470311
    Total Energy =                       -435.3609073057633054
      * MP2 total energy                      = -435.688885797883927
      * CCSD total energy                     = -435.700285581484138
*** Psi4 exiting successfully. Buy a developer a beer!
