                               Psi4 1.2a1.dev939

  ==> Input File <==

--------------------------------------------------------------------------
# Any line starting with the # character is a comment line
memory 250000 mb
molecule molecule{
0 1
C          0.0000000000        0.0000000000       -1.1198483656
S          0.0000000000        0.0000000000        0.4195414448
}

set {
  reference rhf
  basis aug-cc-pv(6+d)z
  scf_type OUT_OF_CORE
  freeze_core true
}

energy('ccsd')
--------------------------------------------------------------------------

    Molecular point group: c2v

    Geometry (in Angstrom), charge = 0, multiplicity = 1:

       Center              X                  Y                   Z               Mass
    ------------   -----------------  -----------------  -----------------  -----------------
           C          0.000000000000     0.000000000000    -1.119289567106    12.000000000000
           S          0.000000000000     0.000000000000     0.420100243294    31.972070999000

  Charge       = 0
  Multiplicity = 1
  Basis Set: AUG-CC-PV(6+D)Z
    Blend: AUG-CC-PV(6+D)Z

    Orbital Energies (a.u.)
    -----------------------

    Doubly Occupied:

       1A1   -92.001401     2A1   -11.355723     3A1    -9.007125
       4A1    -6.687335     1B1    -6.686664     1B2    -6.686664
       5A1    -1.098557     6A1    -0.692969     7A1    -0.470905
       2B1    -0.462112     2B2    -0.462112

  @RHF Final Energy:  -435.36205898287324

   => Energetics <=

    Nuclear Repulsion Energy =             33.0007459328574555
    One-Electron Energy =                -665.5024742103892095
    Two-Electron Energy =                 197.1396692946585176
    Total Energy =                       -435.3620589828732932
      * MP2 total energy                      = -435.702840386918865
      * CCSD total energy                     = -435.709335903842373
*** Psi4 exiting successfully. Buy a developer a beer!
