                               Psi4 1.2a1.dev939

  ==> Input File <==

--------------------------------------------------------------------------
# Any line starting with the # character is a comment line

memory 32000 mb

molecule molecule {
0 1
C          0.0000000000        0.0000000000       -1.1198483656
S          0.0000000000        0.0000000000        0.4195414448
}

set {
  reference rhf

  basis aug-cc-pv(5+d)z
  scf_type OUT_OF_CORE
  freeze_core true
}

energy('ccsd')
--------------------------------------------------------------------------

    Molecular point group: c2v

    Geometry (in Angstrom), charge = 0, multiplicity = 1:

       Center              X                  Y                   Z               Mass
    ------------   -----------------  -----------------  -----------------  -----------------
           C          0.000000000000     0.000000000000    -1.119289567106    12.000000000000
           S          0.000000000000     0.000000000000     0.420100243294    31.972070999000

  Charge       = 0
  Multiplicity = 1
  Basis Set: AUG-CC-PV(5+D)Z
    Blend: AUG-CC-PV(5+D)Z

    Orbital Energies (a.u.)
    -----------------------

    Doubly Occupied:

       1A1   -92.001300     2A1   -11.355787     3A1    -9.007164
       4A1    -6.687328     1B1    -6.686674     1B2    -6.686674
       5A1    -1.098599     6A1    -0.692971     7A1    -0.470910
       2B1    -0.462128     2B2    -0.462128

  @RHF Final Energy:  -435.36181663367557

   => Energetics <=

    Nuclear Repulsion Energy =             33.0007459328574555
    One-Electron Energy =                -665.5018041710455918
    Two-Electron Energy =                 197.1392416045125628
    Total Energy =                       -435.3618166336755166
      * MP2 total energy                      = -435.698552384629181
      * CCSD total energy                     = -435.706824412417006
*** Psi4 exiting successfully. Buy a developer a beer!
