                               Psi4 1.2a1.dev939

  ==> Input File <==

--------------------------------------------------------------------------
# Any line starting with the # character is a comment line

memory 32000 mb

molecule molecule {
0 1
C          0.0000000000        0.0000000000       -1.1198483656
S          0.0000000000        0.0000000000        0.4195414448
}

set {
  reference rhf
  basis aug-cc-pv(T+d)z
  scf_type OUT_OF_CORE
  freeze_core true
}

energy('ccsd')
--------------------------------------------------------------------------

    Molecular point group: c2v

    Geometry (in Angstrom), charge = 0, multiplicity = 1:

       Center              X                  Y                   Z               Mass
    ------------   -----------------  -----------------  -----------------  -----------------
           C          0.000000000000     0.000000000000    -1.119289567106    12.000000000000
           S          0.000000000000     0.000000000000     0.420100243294    31.972070999000

  Charge       = 0
  Multiplicity = 1
  Basis Set: AUG-CC-PV(T+D)Z
    Blend: AUG-CC-PV(T+D)Z

    Orbital Energies (a.u.)
    -----------------------

    Doubly Occupied:

       1A1   -92.001535     2A1   -11.357704     3A1    -9.007772
       4A1    -6.687789     1B2    -6.686866     1B1    -6.686866
       5A1    -1.099480     6A1    -0.693423     7A1    -0.471066
       2B2    -0.462303     2B1    -0.462303

  @RHF Final Energy:  -435.35579442287718

   => Energetics <=

    Nuclear Repulsion Energy =             33.0007459328574555
    One-Electron Energy =                -665.4788683482256602
    Two-Electron Energy =                 197.1223279924910798
    PCM Polarization Energy =               0.0000000000000000
    Total Energy =                       -435.3557944228771817
      * MP2 total energy                      = -435.663874964797060
      * CCSD total energy                     = -435.679414111162828
*** Psi4 exiting successfully. Buy a developer a beer!
