                               Psi4 1.2a1.dev938

  ==> Input File <==

--------------------------------------------------------------------------
# Any line starting with the # character is a comment line
memory 250000 mb
molecule molecule{
0 3
Si         0.0000000000        0.0000000000       -1.0836042810
Si         0.0000000000        0.0000000000        1.0836042810
}

set {
  reference uhf
  basis aug-cc-pv(5+d)z
  scf_type OUT_OF_CORE
  freeze_core true
}

energy('ccsd')
--------------------------------------------------------------------------

    Molecular point group: d2h

    Geometry (in Angstrom), charge = 0, multiplicity = 3:

       Center              X                  Y                   Z               Mass
    ------------   -----------------  -----------------  -----------------  -----------------
          SI          0.000000000000     0.000000000000    -1.083604281000    27.976926532460
          SI          0.000000000000     0.000000000000     1.083604281000    27.976926532460

  Charge       = 0
  Multiplicity = 3
  Basis Set: AUG-CC-PV(5+D)Z
    Blend: AUG-CC-PV(5+D)Z

    Orbital Energies (a.u.)
    -----------------------

    Alpha Occupied:

       1Ag   -68.816163     1B1u  -68.816159     2Ag    -6.161357
       2B1u   -6.160956     3Ag    -4.270108     3B1u   -4.268474
       1B2u   -4.265959     1B3g   -4.265771     1B3u   -4.259853
       1B2g   -4.259675     4Ag    -0.745432     4B1u   -0.511710
       5Ag    -0.355876     2B2u   -0.322821     2B3u   -0.285342

    Alpha Virtual:

       2B3g    0.008162     2B2g    0.024887     5B1u    0.027061
       6Ag     0.037820     3B2u    0.046054     3B3u    0.050357
       3B3g    0.058201     7Ag     0.058581     3B2g    0.063204
       6B1u    0.092324     1B1g    0.103459     8Ag     0.103976
       9Ag     0.130673     7B1u    0.132223     4B2u    0.136824
       4B3u    0.142027     1Au     0.142575     8B1u    0.143605
       4B3g    0.153028     4B2g    0.157774     9B1u    0.192910
       5B2u    0.215369    10Ag     0.227647     5B3u    0.229787
       6B2u    0.273031     6B3u    0.273275     2B1g    0.273547
      11Ag     0.275886     7B2u    0.285421    12Ag     0.286489
      10B1u    0.291069     7B3u    0.297237     5B3g    0.301272
       5B2g    0.310923     2Au     0.320249    11B1u    0.321197
      13Ag     0.329291     6B3g    0.337875     6B2g    0.338220
       3B1g    0.338841    14Ag     0.341166     7B3g    0.342470
       7B2g    0.348276    12B1u    0.369111     8B2u    0.416587
       8B3u    0.426507    13B1u    0.459454     3Au     0.460709
      14B1u    0.472557    15Ag     0.520407     8B3g    0.589998
       8B2g    0.603559    15B1u    0.635907     9B2u    0.666201
       9B3u    0.687385    16Ag     0.695108     4B1g    0.698266
      17Ag     0.698693     5B1g    0.701090    18Ag     0.711795
      10B2u    0.721908    10B3u    0.722242     9B3g    0.734026
       9B2g    0.747565    11B2u    0.780848    11B3u    0.780959
       6B1g    0.781451    19Ag     0.781552    16B1u    0.794638
       4Au     0.795821    17B1u    0.808246    10B3g    0.808340
      10B2g    0.808403     5Au     0.808501    20Ag     0.809173
      18B1u    0.815163    12B2u    0.819953    12B3u    0.829833
      13B2u    0.831102    13B3u    0.845457     6Au     0.849227
      19B1u    0.849592    11B3g    0.896263    11B2g    0.906034
      21Ag     0.914477     7B1g    0.956684    22Ag     0.958543
      12B3g    0.970151    12B2g    0.970244    20B1u    1.011654
      13B3g    1.053287    13B2g    1.073151    21B1u    1.100578
      23Ag     1.114066    22B1u    1.203513     7Au     1.203944
      14B2u    1.279396    23B1u    1.285830    14B3u    1.298644
      14B3g    1.385321    14B2g    1.397722    24B1u    1.510459
      24Ag     1.559775     8B1g    1.610859    25Ag     1.613600
      15B2u    1.620867    15B3u    1.642131    16B2u    1.659221
      16B3u    1.660576    26Ag     1.700670     9B1g    1.746737
      27Ag     1.746758    15B3g    1.747629    15B2g    1.747648
       8Au     1.757657    25B1u    1.758198    10B1g    1.772106
      28Ag     1.772737    17B2u    1.779409    17B3u    1.783541
      18B2u    1.786461    18B3u    1.786487    19B2u    1.791081
      19B3u    1.802744    16B3g    1.824401    11B1g    1.836964
      29Ag     1.836968    16B2g    1.838570    30Ag     1.852121
      17B3g    1.902913    17B2g    1.902913    26B1u    1.903352
       9Au     1.903380    27B1u    1.915947    10Au     1.917092
      12B1g    1.923535    31Ag     1.924955    28B1u    1.950629
      18B3g    2.013084    18B2g    2.013205    20B2u    2.014644
      20B3u    2.021490    21B2u    2.028297    21B3u    2.033148
      19B3g    2.080736    19B2g    2.101297    29B1u    2.115452
      11Au     2.115468    30B1u    2.141754    12Au     2.143386
      31B1u    2.190811    32Ag     2.273449    20B3g    2.276211
      32B1u    2.289346    20B2g    2.293835    13B1g    2.384997
      33Ag     2.386546    22B2u    2.458543    22B3u    2.479735
      21B3g    2.492167    21B2g    2.492214    22B3g    2.799592
      34Ag     2.801595    22B2g    2.815487    33B1u    2.819526
      13Au     2.885755    34B1u    2.889060    23B3g    3.442351
      23B2g    3.459331    23B2u    3.461389    35Ag     3.471414
      23B3u    3.476062    24B2u    3.544149    24B3u    3.544179
      36Ag     3.561116    14B1g    3.561324    24B3g    3.602526
      24B2g    3.602543    25B2u    3.614917    25B3u    3.630973
      37Ag     3.683651    15B1g    3.685539    38Ag     3.686415
      35B1u    3.699337    14Au     3.797951    36B1u    3.798201
      39Ag     3.805123    37B1u    3.900140    15Au     3.908097
      38B1u    3.921749    26B2u    3.943040    26B3u    3.961141
      25B3g    4.065183    25B2g    4.085147    40Ag     4.104678
      16B1g    4.105841    27B2u    4.131390    27B3u    4.131448
      41Ag     4.161897    17B1g    4.193540    42Ag     4.193543
      18B1g    4.206125    43Ag     4.206129    28B2u    4.214459
      28B3u    4.231494    29B2u    4.231498    29B3u    4.232916
      16Au     4.243310    39B1u    4.243310    30B2u    4.251526
      30B3u    4.251576    26B3g    4.265868    26B2g    4.279571
      27B3g    4.286027    27B2g    4.286030    28B3g    4.342064
      28B2g    4.342150    40B1u    4.400045    17Au     4.400045
      44Ag     4.453411    19B1g    4.454363    41B1u    4.502682
      18Au     4.505145    42B1u    4.507563    45Ag     4.520032
      43B1u    4.591408    29B3g    4.624011    29B2g    4.637765
      30B3g    4.667706    30B2g    4.667731    31B2u    4.857299
      31B3u    4.875172    44B1u    4.909093    19Au     5.035790
      45B1u    5.036828    31B3g    5.374641    31B2g    5.392893
      46B1u    5.933628    46Ag     6.194236    47Ag     9.742854
      20B1g    9.742894    32B2u    9.870556    32B3u    9.878529
      47B1u    9.880211    20Au     9.880223    48Ag    10.033047
      32B3g   10.257125    32B2g   10.265195    48B1u   10.362700
      33B2u   13.362766    33B3u   13.372317    49Ag    13.829612
      33B3g   13.944508    33B2g   13.954107    49B1u   15.460814
      50B1u   40.010568    50Ag    41.497102

    Beta Occupied:

       1Ag   -68.810633     1B1u  -68.810632     2Ag    -6.155670
       2B1u   -6.155461     1B3u   -4.257103     1B2g   -4.256953
       1B2u   -4.252542     1B3g   -4.252404     3Ag    -4.249821
       3B1u   -4.248400     4Ag    -0.622410     4B1u   -0.406931
       2B3u   -0.270710

    Beta Virtual:

       5Ag    -0.022495     2B2u   -0.014137     5B1u    0.027871
       2B2g    0.033362     2B3g    0.044681     6Ag     0.045563
       3B3u    0.051169     3B2u    0.056973     7Ag     0.066230
       3B2g    0.066884     3B3g    0.087290     6B1u    0.097322
       1B1g    0.109528     8Ag     0.109537     7B1u    0.138838
       9Ag     0.141778     4B2u    0.143476     1Au     0.143676
       8B1u    0.144639     4B3u    0.145575     4B2g    0.158835
       4B3g    0.165944     9B1u    0.218149     5B3u    0.236918
       5B2u    0.249462    10Ag     0.256287     6B3u    0.276165
       6B2u    0.276320     2B1g    0.297777    11Ag     0.298115
      12Ag     0.304552     5B2g    0.313177     5B3g    0.315567
       7B3u    0.316670     7B2u    0.318937    10B1u    0.322317
       2Au     0.327370    11B1u    0.327654    13Ag     0.338790
       6B2g    0.339619     6B3g    0.339693     3B1g    0.342893
      14Ag     0.344640     7B3g    0.350110     7B2g    0.351461
      12B1u    0.383732     8B3u    0.438679     8B2u    0.439493
      13B1u    0.467957     3Au     0.469510    14B1u    0.478124
      15Ag     0.553275     8B2g    0.609720     8B3g    0.612600
      15B1u    0.660426     4B1g    0.702373    16Ag     0.702377
       9B3u    0.704950     9B2u    0.708335     5B1g    0.722769
      17Ag     0.722893    18Ag     0.731547    10B3u    0.733875
      10B2u    0.733943     9B3g    0.758825     9B2g    0.763448
      11B2u    0.785713    11B3u    0.785720    19Ag     0.794914
       6B1g    0.794998    16B1u    0.805524     4Au     0.805834
      17B1u    0.812256     5Au     0.812490    10B3g    0.814840
      10B2g    0.814850    18B1u    0.828025    12B2u    0.835007
      20Ag     0.835704    12B3u    0.839272    13B2u    0.852268
      13B3u    0.854483     6Au     0.857031    19B1u    0.857058
      11B3g    0.903680    11B2g    0.910432    21Ag     0.924873
       7B1g    0.963474    22Ag     0.964041    12B3g    0.973820
      12B2g    0.973826    20B1u    1.029646    13B3g    1.077902
      13B2g    1.079973    21B1u    1.122083    23Ag     1.129722
      22B1u    1.210125     7Au     1.210428    14B2u    1.299301
      23B1u    1.299463    14B3u    1.305771    14B3g    1.400641
      14B2g    1.406068    24B1u    1.526435    24Ag     1.590362
       8B1g    1.635136    25Ag     1.635469    15B2u    1.655621
      15B3u    1.662142    16B2u    1.673180    16B3u    1.673563
      26Ag     1.722059     9B1g    1.757330    27Ag     1.757331
      15B3g    1.757479    15B2g    1.757480     8Au     1.769246
      25B1u    1.769359    10B1g    1.779788    28Ag     1.779870
      17B2u    1.791663    17B3u    1.791663    18B2u    1.797268
      18B3u    1.798269    19B2u    1.805392    19B3u    1.813590
      11B1g    1.843473    29Ag     1.843473    16B3g    1.845883
      16B2g    1.853542    30Ag     1.870131    17B3g    1.907141
      17B2g    1.907141    26B1u    1.910226     9Au     1.910229
      27B1u    1.927575    10Au     1.928009    12B1g    1.938758
      31Ag     1.939201    28B1u    1.967694    18B3g    2.022984
      18B2g    2.023007    20B2u    2.028948    20B3u    2.031526
      21B2u    2.036657    21B3u    2.041611    19B3g    2.096912
      19B2g    2.107368    29B1u    2.121437    11Au     2.121439
      30B1u    2.152303    12Au     2.152911    31B1u    2.203541
      32Ag     2.284125    20B3g    2.286956    20B2g    2.299262
      32B1u    2.305102    13B1g    2.394038    33Ag     2.394762
      22B2u    2.479498    22B3u    2.489313    21B3g    2.498822
      21B2g    2.498838    22B3g    2.812529    34Ag     2.821774
      22B2g    2.822184    33B1u    2.830918    13Au     2.895300
      34B1u    2.896762    23B3g    3.458231    23B2g    3.467291
      23B2u    3.476239    23B3u    3.482639    35Ag     3.488565
      24B2u    3.549862    24B3u    3.549867    36Ag     3.572813
      14B1g    3.572882    24B3g    3.608126    24B2g    3.608130
      25B2u    3.631437    25B3u    3.641201    37Ag     3.689970
      15B1g    3.690359    38Ag     3.701403    35B1u    3.713570
      14Au     3.804522    36B1u    3.804643    39Ag     3.816267
      37B1u    3.911188    15Au     3.916247    38B1u    3.925921
      26B2u    3.956756    26B3u    3.968435    25B3g    4.077521
      25B2g    4.089674    40Ag     4.121546    16B1g    4.122049
      27B2u    4.144243    27B3u    4.144258    41Ag     4.178507
      17B1g    4.199306    42Ag     4.199307    18B1g    4.214937
      43Ag     4.214938    28B2u    4.234848    28B3u    4.236995
      29B2u    4.236995    29B3u    4.246061    16Au     4.248848
      39B1u    4.248848    30B2u    4.261417    30B3u    4.261440
      26B3g    4.282364    26B2g    4.291163    27B3g    4.291171
      27B2g    4.291844    28B3g    4.351408    28B2g    4.351440
      40B1u    4.408227    17Au     4.408227    44Ag     4.466078
      19B1g    4.466527    41B1u    4.515476    18Au     4.516489
      42B1u    4.521077    45Ag     4.533407    43B1u    4.603772
      29B3g    4.634567    29B2g    4.643993    30B3g    4.677792
      30B2g    4.677803    31B2u    4.871810    31B3u    4.884638
      44B1u    4.920376    19Au     5.047191    45B1u    5.047668
      31B3g    5.389878    31B2g    5.402391    46B1u    5.948298
      46Ag     6.203386    47Ag     9.746309    20B1g    9.746321
      32B2u    9.878554    47B1u    9.883532    20Au     9.883533
      32B3u    9.883535    48Ag    10.040528    32B3g   10.264839
      32B2g   10.270030    48B1u   10.369716    33B2u   13.371869
      33B3u   13.374548    49Ag    13.842975    33B3g   13.953645
      33B2g   13.956646    49B1u   15.472895    50B1u   40.014979
      50Ag    41.501364

    Final Occupation by Irrep:
             Ag   B1g   B2g   B3g    Au   B1u   B2u   B3u
    DOCC [     4,    0,    1,    1,    0,    4,    1,    2 ]
    SOCC [     1,    0,    0,    0,    0,    0,    1,    0 ]

  Energy converged.

  @UHF Final Energy:  -577.76485293601593

   => Energetics <=

    Nuclear Repulsion Energy =             47.8582148032506680
    One-Electron Energy =                -896.7308081566961846
    Two-Electron Energy =                 271.1077404174295680
    PCM Polarization Energy =               0.0000000000000000
    Total Energy =                       -577.7648529360159273

    Alert: EFP and PCM quantities not currently incorporated into SCF psivars.
  UHF NO Occupations:
  HONO-2 :    4B1u 1.9901337
  HONO-1 :    2B2u 1.0000000
  HONO-0 :    5 Ag 1.0000000
  LUNO+0 :    5B1u 0.0098663
  LUNO+1 :    6 Ag 0.0041902
  LUNO+2 :    3B3u 0.0006977
  LUNO+3 :    6B1u 0.0000030

Properties will be evaluated at   0.000000,   0.000000,   0.000000 Bohr

Properties computed using the SCF density matrix

  Nuclear Dipole Moment: (a.u.)
     X:     0.0000      Y:     0.0000      Z:     0.0000

  Electronic Dipole Moment: (a.u.)
     X:     0.0000      Y:     0.0000      Z:     0.0000

  Dipole Moment: (a.u.)
     X:     0.0000      Y:     0.0000      Z:     0.0000     Total:     0.0000

  Dipole Moment: (Debye)
     X:     0.0000      Y:     0.0000      Z:     0.0000     Total:     0.0000

*** tstop() called on cqc05 at Thu Aug 20 23:11:25 2020
Module time:
	user time   =     113.16 seconds =       1.89 minutes
	system time =       3.89 seconds =       0.06 minutes
	total time  =        128 seconds =       2.13 minutes
Total time:
	user time   =     113.16 seconds =       1.89 minutes
	system time =       3.89 seconds =       0.06 minutes
	total time  =        128 seconds =       2.13 minutes

*** tstart() called on cqc05
*** at Thu Aug 20 23:11:25 2020

	Wfn Parameters:
	--------------------
	Wavefunction         = CCSD
	Number of irreps     = 8
	Number of MOs        = 272
	Number of active MOs = 262
	AO-Basis             = NONE
	Semicanonical        = false
	Reference            = UHF
	Print Level          = 1

	IRREP	# MOs	# FZDC	# DOCC	# SOCC	# VIRT	# FZVR
	-----	-----	------	------	------	------	------
	 Ag	   50	    3	    1	    1	    45	    0
	 B1g	   20	    0	    0	    0	    20	    0
	 B2g	   33	    1	    0	    0	    32	    0
	 B3g	   33	    1	    0	    0	    32	    0
	 Au	   20	    0	    0	    0	    20	    0
	 B1u	   50	    3	    1	    0	    46	    0
	 B2u	   33	    1	    0	    1	    31	    0
	 B3u	   33	    1	    1	    0	    31	    0
	Transforming integrals...
	IWL integrals will be deleted.
	(OO|OO)...
	Presorting SO-basis two-electron integrals.
	Sorting File: SO Ints (nn|nn) nbuckets = 1
	Transforming the one-electron integrals and constructing Fock matrices
	Starting AA/AB first half-transformation.
	Sorting AA/AB half-transformed integrals.
	Starting BB first half-transformation.
	Sorting BB half-transformed integrals.
	First half integral transformation complete.
	Starting AA second half-transformation.
	Starting AB second half-transformation.
	Starting BB second half-transformation.
	Two-electron integral transformation complete.
	(OO|OV)...
	Starting AA second half-transformation.
	Starting AB second half-transformation.
	Starting BB second half-transformation.
	Two-electron integral transformation complete.
	(OO|VV)...
	Starting AA second half-transformation.
	Starting AB second half-transformation.
	Starting BB second half-transformation.
	Two-electron integral transformation complete.
	(OV|OO)...
	Starting AA/AB first half-transformation.
	Sorting AA/AB half-transformed integrals.
	Starting BB first half-transformation.
	Sorting BB half-transformed integrals.
	First half integral transformation complete.
	Starting AA second half-transformation.
	Starting AB second half-transformation.
	Starting BB second half-transformation.
	Two-electron integral transformation complete.
	(OV|OV)...
	Starting AA second half-transformation.
	Starting AB second half-transformation.
	Starting BB second half-transformation.
	Two-electron integral transformation complete.
	(OV|VV)...
	Starting AA second half-transformation.
	Starting AB second half-transformation.
	Starting BB second half-transformation.
	Two-electron integral transformation complete.
	(VV|OO)...
	Starting AA/AB first half-transformation.
	Sorting AA/AB half-transformed integrals.
	Starting BB first half-transformation.
	Sorting BB half-transformed integrals.
	First half integral transformation complete.
	Starting AA second half-transformation.
	Starting AB second half-transformation.
	Starting BB second half-transformation.
	Two-electron integral transformation complete.
	(VV|OV)...
	Starting AA second half-transformation.
	Starting AB second half-transformation.
	Starting BB second half-transformation.
	Two-electron integral transformation complete.
	(VV|VV)...
	Starting AA second half-transformation.
	Starting AB second half-transformation.
	Starting BB second half-transformation.
	Two-electron integral transformation complete.
	Frozen core energy     =   -614.30498540509393

	Size of irrep 0 of <AB|CD> integrals:     18.723 (MW) /    149.783 (MB)
	Size of irrep 1 of <AB|CD> integrals:     14.478 (MW) /    115.824 (MB)
	Size of irrep 2 of <AB|CD> integrals:     17.024 (MW) /    136.191 (MB)
	Size of irrep 3 of <AB|CD> integrals:     17.024 (MW) /    136.191 (MB)
	Size of irrep 4 of <AB|CD> integrals:     14.470 (MW) /    115.763 (MB)
	Size of irrep 5 of <AB|CD> integrals:     19.838 (MW) /    158.705 (MB)
	Size of irrep 6 of <AB|CD> integrals:     17.032 (MW) /    136.257 (MB)
	Size of irrep 7 of <AB|CD> integrals:     17.032 (MW) /    136.257 (MB)
	Total:                                   135.621 (MW) /   1084.972 (MB)

	Size of irrep 0 of <ab|cd> integrals:     19.386 (MW) /    155.091 (MB)
	Size of irrep 1 of <ab|cd> integrals:     14.869 (MW) /    118.950 (MB)
	Size of irrep 2 of <ab|cd> integrals:     17.456 (MW) /    139.645 (MB)
	Size of irrep 3 of <ab|cd> integrals:     17.674 (MW) /    141.389 (MB)
	Size of irrep 4 of <ab|cd> integrals:     14.869 (MW) /    118.950 (MB)
	Size of irrep 5 of <ab|cd> integrals:     20.539 (MW) /    164.312 (MB)
	Size of irrep 6 of <ab|cd> integrals:     17.674 (MW) /    141.389 (MB)
	Size of irrep 7 of <ab|cd> integrals:     17.456 (MW) /    139.645 (MB)
	Total:                                   139.922 (MW) /   1119.372 (MB)

	Size of irrep 0 of <Ab|Cd> integrals:     80.766 (MW) /    646.129 (MB)
	Size of irrep 1 of <Ab|Cd> integrals:     58.691 (MW) /    469.527 (MB)
	Size of irrep 2 of <Ab|Cd> integrals:     68.956 (MW) /    551.651 (MB)
	Size of irrep 3 of <Ab|Cd> integrals:     69.389 (MW) /    555.111 (MB)
	Size of irrep 4 of <Ab|Cd> integrals:     58.676 (MW) /    469.405 (MB)
	Size of irrep 5 of <Ab|Cd> integrals:     80.748 (MW) /    645.986 (MB)
	Size of irrep 6 of <Ab|Cd> integrals:     69.389 (MW) /    555.111 (MB)
	Size of irrep 7 of <Ab|Cd> integrals:     68.973 (MW) /    551.784 (MB)
	Total:                                   555.588 (MW) /   4444.705 (MB)

	Size of irrep 0 of <IA|BC> integrals:      1.764 (MW) /     14.115 (MB)
	Size of irrep 1 of <IA|BC> integrals:      0.928 (MW) /      7.427 (MB)
	Size of irrep 2 of <IA|BC> integrals:      1.329 (MW) /     10.629 (MB)
	Size of irrep 3 of <IA|BC> integrals:      1.329 (MW) /     10.629 (MB)
	Size of irrep 4 of <IA|BC> integrals:      0.943 (MW) /      7.547 (MB)
	Size of irrep 5 of <IA|BC> integrals:      1.791 (MW) /     14.324 (MB)
	Size of irrep 6 of <IA|BC> integrals:      1.312 (MW) /     10.499 (MB)
	Size of irrep 7 of <IA|BC> integrals:      1.312 (MW) /     10.499 (MB)
	Total:                                    10.709 (MW) /     85.669 (MB)

	Size of irrep 0 of <ia|bc> integrals:      1.115 (MW) /      8.920 (MB)
	Size of irrep 1 of <ia|bc> integrals:      0.555 (MW) /      4.442 (MB)
	Size of irrep 2 of <ia|bc> integrals:      0.911 (MW) /      7.286 (MB)
	Size of irrep 3 of <ia|bc> integrals:      0.706 (MW) /      5.650 (MB)
	Size of irrep 4 of <ia|bc> integrals:      0.555 (MW) /      4.442 (MB)
	Size of irrep 5 of <ia|bc> integrals:      1.124 (MW) /      8.991 (MB)
	Size of irrep 6 of <ia|bc> integrals:      0.706 (MW) /      5.650 (MB)
	Size of irrep 7 of <ia|bc> integrals:      0.911 (MW) /      7.286 (MB)
	Total:                                     6.584 (MW) /     52.669 (MB)

	Size of irrep 0 of <Ia|Bc> integrals:      1.806 (MW) /     14.451 (MB)
	Size of irrep 1 of <Ia|Bc> integrals:      0.942 (MW) /      7.538 (MB)
	Size of irrep 2 of <Ia|Bc> integrals:      1.337 (MW) /     10.696 (MB)
	Size of irrep 3 of <Ia|Bc> integrals:      1.349 (MW) /     10.796 (MB)

      * MP2 total energy                      = -577.959426945308678
      * CCSD total energy                     = -577.978262842263575
*** Psi4 exiting successfully. Buy a developer a beer!
