                               Psi4 1.2a1.dev938

  ==> Input File <==

--------------------------------------------------------------------------
# Any line starting with the # character is a comment line
memory 250000 mb
molecule molecule{
0 3
Si         0.0000000000        0.0000000000       -1.0836042810
Si         0.0000000000        0.0000000000        1.0836042810
}

set {
  reference uhf
  basis aug-cc-pv(q+d)z
  scf_type OUT_OF_CORE
  freeze_core true
}

energy('ccsd')
--------------------------------------------------------------------------

    Molecular point group: d2h

    Geometry (in Angstrom), charge = 0, multiplicity = 3:

       Center              X                  Y                   Z               Mass
    ------------   -----------------  -----------------  -----------------  -----------------
          SI          0.000000000000     0.000000000000    -1.083604281000    27.976926532460
          SI          0.000000000000     0.000000000000     1.083604281000    27.976926532460

  Charge       = 0
  Multiplicity = 3
  Basis Set: AUG-CC-PV(Q+D)Z
    Blend: AUG-CC-PV(Q+D)Z

    Orbital Energies (a.u.)
    -----------------------

    Alpha Occupied:

       1Ag   -68.815558     1B1u  -68.815554     2Ag    -6.161375
       2B1u   -6.160974     3Ag    -4.269526     3B1u   -4.267894
       1B2u   -4.265781     1B3g   -4.265592     1B3u   -4.259645
       1B2g   -4.259467     4Ag    -0.745433     4B1u   -0.511720
       5Ag    -0.355825     2B2u   -0.322817     2B3u   -0.285358

    Alpha Virtual:

       2B3g    0.008172     2B2g    0.025108     5B1u    0.028864
       6Ag     0.041275     3B2u    0.049344     3B3u    0.054057
       3B3g    0.062942     7Ag     0.062985     3B2g    0.068232
       6B1u    0.099210     1B1g    0.109042     8Ag     0.109710
       7B1u    0.140647     9Ag     0.142419     4B2u    0.146122
       4B3u    0.152156     1Au     0.154523     8B1u    0.155536
       4B3g    0.168339     4B2g    0.173572     9B1u    0.207704
       5B2u    0.239945    10Ag     0.253686     5B3u    0.256378
       2B1g    0.293969    11Ag     0.297042     6B2u    0.312695
      10B1u    0.319054     6B3u    0.319901    12Ag     0.320579
       7B2u    0.322004     7B3u    0.328579     5B3g    0.343565
       5B2g    0.354700     2Au     0.361599    11B1u    0.362499
      13Ag     0.373661     6B3g    0.383493     3B1g    0.389687
       6B2g    0.390518    14Ag     0.391905     7B3g    0.397226
       7B2g    0.397800    12B1u    0.426598     8B2u    0.481551
       8B3u    0.491568    13B1u    0.510706     3Au     0.511171
      14B1u    0.537357    15Ag     0.592832     8B3g    0.648086
       8B2g    0.663284    15B1u    0.710438     9B2u    0.769357
       9B3u    0.791231    16Ag     0.803574     4B1g    0.804859
      17Ag     0.850770     9B3g    0.885264     4Au     0.897568
      16B1u    0.897714     9B2g    0.899516    10B2u    0.910099
      10B3u    0.910152    18Ag     0.911146     5B1g    0.932566
      19Ag     0.936861    17B1u    0.977467     6B1g    0.984823
      20Ag     0.984830    11B2u    1.006802    10B3g    1.010254
      10B2g    1.010289    11B3u    1.022786    12B2u    1.042405
      12B3u    1.042955    13B2u    1.068243    13B3u    1.083233
       5Au     1.087087    18B1u    1.087378     6Au     1.109982
      19B1u    1.109986    11B3g    1.155832    11B2g    1.168853
      21Ag     1.187840    20B1u    1.219190     7B1g    1.248260
      22Ag     1.250130    12B3g    1.258822    12B2g    1.279736
      13B3g    1.302634    13B2g    1.303552    21B1u    1.329812
      23Ag     1.368077    14B2u    1.530177    14B3u    1.549268
      22B1u    1.561088     7Au     1.562328    23B1u    1.639783
      14B3g    1.679055    14B2g    1.691964    24B1u    1.784867
      24Ag     1.855859     8B1g    1.954422    25Ag     1.955242
      15B2u    1.980142    15B3u    1.997946     8Au     2.064396
      25B1u    2.065182    26Ag     2.238711     9B1g    2.335565
      27Ag     2.337068    28Ag     2.371018    16B2u    2.375581
      16B3u    2.377184    17B2u    2.385834    17B3u    2.403980
      15B3g    2.425257    15B2g    2.425378    16B3g    2.457111
      16B2g    2.472439    26B1u    2.491567     9Au     2.533571
      27B1u    2.534819    18B2u    2.590465    18B3u    2.590474
      10B1g    2.619553    29Ag     2.620079    17B3g    2.620267
      17B2g    2.640739    11B1g    2.643446    30Ag     2.643461
      10Au     2.705877    28B1u    2.705877    19B2u    2.839706
      18B3g    2.843194    18B2g    2.843226    19B3u    2.856645
      29B1u    2.907344    11Au     3.111297    30B1u    3.111707
      31Ag     3.140603    31B1u    3.307028    19B3g    3.399536
      19B2g    3.418596    20B2u    5.297520    20B3u    5.316096
      20B3g    5.898776    20B2g    5.914916    32Ag     6.081523
      12B1g    6.081670    32B1u    6.141813    12Au     6.141881
      21B2u    6.147627    21B3u    6.157273    33Ag     6.225060
      33B1u    6.457484    21B3g    6.558498    21B2g    6.569538
      34Ag     7.031452    34B1u    7.612070    35B1u   10.281354
      35Ag    10.293138

    Beta Occupied:

       1Ag   -68.810778     1B1u  -68.810777     2Ag    -6.155596
       2B1u   -6.155387     1B3u   -4.257066     1B2g   -4.256916
       1B2u   -4.252992     1B3g   -4.252854     3Ag    -4.250157
       3B1u   -4.248736     4Ag    -0.622539     4B1u   -0.406988
       2B3u   -0.270708

    Beta Virtual:

       5Ag    -0.022496     2B2u   -0.014187     5B1u    0.029789
       2B2g    0.033878     2B3g    0.046782     6Ag     0.049623
       3B3u    0.055002     3B2u    0.061487     7Ag     0.071777
       3B2g    0.071827     3B3g    0.091865     6B1u    0.105083
       1B1g    0.116097     8Ag     0.116101     7B1u    0.149795
       4B2u    0.154607     9Ag     0.154863     1Au     0.156014
       4B3u    0.156750     8B1u    0.156854     4B2g    0.174580
       4B3g    0.181347     9B1u    0.235214     5B3u    0.266192
       5B2u    0.280603    10Ag     0.288746     2B1g    0.320702
      11Ag     0.321601     6B3u    0.325259     6B2u    0.325364
      12Ag     0.339516     7B3u    0.350745     7B2u    0.353935
      10B1u    0.355035     5B2g    0.356760     5B3g    0.360237
      11B1u    0.372176     2Au     0.372218    13Ag     0.385324
       6B3g    0.394170     3B1g    0.394509    14Ag     0.395849
       6B2g    0.396468     7B3g    0.399343     7B2g    0.399988
      12B1u    0.437473     8B2u    0.499115     8B3u    0.500317
      13B1u    0.517728     3Au     0.518398    14B1u    0.543430
      15Ag     0.622941     8B2g    0.671605     8B3g    0.673951
      15B1u    0.737029     9B3u    0.813251     9B2u    0.815645
       4B1g    0.825945    16Ag     0.826100    17Ag     0.883222
      16B1u    0.910458     4Au     0.910519     9B3g    0.912858
       9B2g    0.917110    10B2u    0.925741    10B3u    0.925747
      18Ag     0.943782     5B1g    0.954416    19Ag     0.955263
       6B1g    0.991668    20Ag     0.991668    17B1u    1.003803
      10B3g    1.020017    10B2g    1.020017    11B2u    1.032006
      11B3u    1.036945    12B2u    1.051771    12B3u    1.051905
      13B2u    1.090156    13B3u    1.091372    18B1u    1.100544
       5Au     1.100547     6Au     1.114573    19B1u    1.114574
      11B3g    1.173347    11B2g    1.178195    21Ag     1.201825
      20B1u    1.238219     7B1g    1.259063    22Ag     1.259557
      12B3g    1.278711    12B2g    1.284800    13B3g    1.308866
      13B2g    1.309095    21B1u    1.350813    23Ag     1.382237
      14B2u    1.551572    14B3u    1.559336    22B1u    1.569771
       7Au     1.570341    23B1u    1.654672    14B3g    1.694662
      14B2g    1.700722    24B1u    1.796914    24Ag     1.874902
       8B1g    1.960900    25Ag     1.961073    15B2u    1.999947
      15B3u    2.008149     8Au     2.071755    25B1u    2.071939
      26Ag     2.269284     9B1g    2.356933    27Ag     2.357105
      16B2u    2.387134    16B3u    2.387171    28Ag     2.393121
      17B2u    2.414617    17B3u    2.422955    15B3g    2.434524
      15B2g    2.434535    16B3g    2.481226    16B2g    2.489133
      26B1u    2.511879     9Au     2.548993    27B1u    2.549404
      18B2u    2.605722    18B3u    2.605723    17B3g    2.635416
      10B1g    2.638463    29Ag     2.638572    17B2g    2.647073
      11B1g    2.651272    30Ag     2.651276    28B1u    2.713435
      10Au     2.713435    18B3g    2.855357    18B2g    2.855362
      19B2u    2.863846    19B3u    2.873267    29B1u    2.922509
      11Au     3.126114    30B1u    3.126266    31Ag     3.163705
      31B1u    3.324910    19B3g    3.419503    19B2g    3.430866
      20B2u    5.309678    20B3u    5.319016    20B3g    5.908506
      20B2g    5.917665    32Ag     6.084800    12B1g    6.084868
      32B1u    6.145011    12Au     6.145048    21B2u    6.155750
      21B3u    6.161806    33Ag     6.232140    33B1u    6.464891
      21B3g    6.567194    21B2g    6.574309    34Ag     7.044765
      34B1u    7.625516    35B1u   10.288156    35Ag    10.300597

    Final Occupation by Irrep:
             Ag   B1g   B2g   B3g    Au   B1u   B2u   B3u
    DOCC [     4,    0,    1,    1,    0,    4,    1,    2 ]
    SOCC [     1,    0,    0,    0,    0,    0,    1,    0 ]

  Energy converged.

  @UHF Final Energy:  -577.76414150632343

   => Energetics <=

    Nuclear Repulsion Energy =             47.8582148032506680
    One-Electron Energy =                -896.7307002629580666
    Two-Electron Energy =                 271.1083439533840078
    PCM Polarization Energy =               0.0000000000000000
    Total Energy =                       -577.7641415063233126

    Alert: EFP and PCM quantities not currently incorporated into SCF psivars.
  UHF NO Occupations:
  HONO-2 :    4B1u 1.9901427
  HONO-1 :    5 Ag 1.0000000
  HONO-0 :    2B2u 1.0000000
  LUNO+0 :    5B1u 0.0098573
  LUNO+1 :    6 Ag 0.0041727
  LUNO+2 :    3B3u 0.0006948
  LUNO+3 :    6B1u 0.0000017

Properties will be evaluated at   0.000000,   0.000000,   0.000000 Bohr

Properties computed using the SCF density matrix

  Nuclear Dipole Moment: (a.u.)
     X:     0.0000      Y:     0.0000      Z:     0.0000

  Electronic Dipole Moment: (a.u.)
     X:     0.0000      Y:     0.0000      Z:     0.0000

  Dipole Moment: (a.u.)
     X:     0.0000      Y:     0.0000      Z:     0.0000     Total:     0.0000

  Dipole Moment: (Debye)
     X:     0.0000      Y:     0.0000      Z:     0.0000     Total:     0.0000

*** tstop() called on cqc05 at Thu Aug 20 20:16:30 2020
Module time:
	user time   =      16.15 seconds =       0.27 minutes
	system time =       0.53 seconds =       0.01 minutes
	total time  =         17 seconds =       0.28 minutes
Total time:
	user time   =      16.15 seconds =       0.27 minutes
	system time =       0.53 seconds =       0.01 minutes
	total time  =         17 seconds =       0.28 minutes

*** tstart() called on cqc05
*** at Thu Aug 20 20:16:30 2020

	Wfn Parameters:
	--------------------
	Wavefunction         = CCSD
	Number of irreps     = 8
	Number of MOs        = 178
	Number of active MOs = 168
	AO-Basis             = NONE
	Semicanonical        = false
	Reference            = UHF
	Print Level          = 1

	IRREP	# MOs	# FZDC	# DOCC	# SOCC	# VIRT	# FZVR
	-----	-----	------	------	------	------	------
	 Ag	   35	    3	    1	    1	    30	    0
	 B1g	   12	    0	    0	    0	    12	    0
	 B2g	   21	    1	    0	    0	    20	    0
	 B3g	   21	    1	    0	    0	    20	    0
	 Au	   12	    0	    0	    0	    12	    0
	 B1u	   35	    3	    1	    0	    31	    0
	 B2u	   21	    1	    0	    1	    19	    0
	 B3u	   21	    1	    1	    0	    19	    0
	Transforming integrals...
	IWL integrals will be deleted.
	(OO|OO)...
	Presorting SO-basis two-electron integrals.
	Sorting File: SO Ints (nn|nn) nbuckets = 1
	Transforming the one-electron integrals and constructing Fock matrices
	Starting AA/AB first half-transformation.
	Sorting AA/AB half-transformed integrals.
	Starting BB first half-transformation.
	Sorting BB half-transformed integrals.
	First half integral transformation complete.
	Starting AA second half-transformation.
	Starting AB second half-transformation.
	Starting BB second half-transformation.
	Two-electron integral transformation complete.
	(OO|OV)...
	Starting AA second half-transformation.
	Starting AB second half-transformation.
	Starting BB second half-transformation.
	Two-electron integral transformation complete.
	(OO|VV)...
	Starting AA second half-transformation.
	Starting AB second half-transformation.
	Starting BB second half-transformation.
	Two-electron integral transformation complete.
	(OV|OO)...
	Starting AA/AB first half-transformation.
	Sorting AA/AB half-transformed integrals.
	Starting BB first half-transformation.
	Sorting BB half-transformed integrals.
	First half integral transformation complete.
	Starting AA second half-transformation.
	Starting AB second half-transformation.
	Starting BB second half-transformation.
	Two-electron integral transformation complete.
	(OV|OV)...
	Starting AA second half-transformation.
	Starting AB second half-transformation.
	Starting BB second half-transformation.
	Two-electron integral transformation complete.
	(OV|VV)...
	Starting AA second half-transformation.
	Starting AB second half-transformation.
	Starting BB second half-transformation.
	Two-electron integral transformation complete.
	(VV|OO)...
	Starting AA/AB first half-transformation.
	Sorting AA/AB half-transformed integrals.
	Starting BB first half-transformation.
	Sorting BB half-transformed integrals.
	First half integral transformation complete.
	Starting AA second half-transformation.
	Starting AB second half-transformation.
	Starting BB second half-transformation.
	Two-electron integral transformation complete.
	(VV|OV)...
	Starting AA second half-transformation.
	Starting AB second half-transformation.
	Starting BB second half-transformation.
	Two-electron integral transformation complete.
	(VV|VV)...
	Starting AA second half-transformation.
	Starting AB second half-transformation.
	Starting BB second half-transformation.
	Two-electron integral transformation complete.
	Frozen core energy     =   -614.30448718645425

	Size of irrep 0 of <AB|CD> integrals:      3.077 (MW) /     24.612 (MB)
	Size of irrep 1 of <AB|CD> integrals:      2.229 (MW) /     17.832 (MB)
	Size of irrep 2 of <AB|CD> integrals:      2.746 (MW) /     21.965 (MB)
	Size of irrep 3 of <AB|CD> integrals:      2.746 (MW) /     21.965 (MB)
	Size of irrep 4 of <AB|CD> integrals:      2.226 (MW) /     17.809 (MB)
	Size of irrep 5 of <AB|CD> integrals:      3.364 (MW) /     26.908 (MB)
	Size of irrep 6 of <AB|CD> integrals:      2.749 (MW) /     21.992 (MB)
	Size of irrep 7 of <AB|CD> integrals:      2.749 (MW) /     21.992 (MB)
	Total:                                    21.884 (MW) /    175.075 (MB)

	Size of irrep 0 of <ab|cd> integrals:      3.251 (MW) /     26.006 (MB)
	Size of irrep 1 of <ab|cd> integrals:      2.323 (MW) /     18.581 (MB)
	Size of irrep 2 of <ab|cd> integrals:      2.853 (MW) /     22.822 (MB)
	Size of irrep 3 of <ab|cd> integrals:      2.917 (MW) /     23.338 (MB)
	Size of irrep 4 of <ab|cd> integrals:      2.323 (MW) /     18.581 (MB)
	Size of irrep 5 of <ab|cd> integrals:      3.553 (MW) /     28.426 (MB)
	Size of irrep 6 of <ab|cd> integrals:      2.917 (MW) /     23.338 (MB)
	Size of irrep 7 of <ab|cd> integrals:      2.853 (MW) /     22.822 (MB)
	Total:                                    22.989 (MW) /    183.913 (MB)

	Size of irrep 0 of <Ab|Cd> integrals:     13.838 (MW) /    110.707 (MB)
	Size of irrep 1 of <Ab|Cd> integrals:      9.102 (MW) /     72.818 (MB)
	Size of irrep 2 of <Ab|Cd> integrals:     11.196 (MW) /     89.566 (MB)
	Size of irrep 3 of <Ab|Cd> integrals:     11.323 (MW) /     90.586 (MB)
	Size of irrep 4 of <Ab|Cd> integrals:      9.096 (MW) /     72.770 (MB)
	Size of irrep 5 of <Ab|Cd> integrals:     13.831 (MW) /    110.648 (MB)
	Size of irrep 6 of <Ab|Cd> integrals:     11.323 (MW) /     90.586 (MB)
	Size of irrep 7 of <Ab|Cd> integrals:     11.202 (MW) /     89.619 (MB)
	Total:                                    90.912 (MW) /    727.300 (MB)

	Size of irrep 0 of <IA|BC> integrals:      0.474 (MW) /      3.788 (MB)
	Size of irrep 1 of <IA|BC> integrals:      0.221 (MW) /      1.768 (MB)
	Size of irrep 2 of <IA|BC> integrals:      0.338 (MW) /      2.704 (MB)
	Size of irrep 3 of <IA|BC> integrals:      0.338 (MW) /      2.704 (MB)
	Size of irrep 4 of <IA|BC> integrals:      0.227 (MW) /      1.814 (MB)
	Size of irrep 5 of <IA|BC> integrals:      0.484 (MW) /      3.873 (MB)
	Size of irrep 6 of <IA|BC> integrals:      0.332 (MW) /      2.653 (MB)
	Size of irrep 7 of <IA|BC> integrals:      0.332 (MW) /      2.653 (MB)
	Total:                                     2.745 (MW) /     21.958 (MB)

	Size of irrep 0 of <ia|bc> integrals:      0.305 (MW) /      2.444 (MB)
	Size of irrep 1 of <ia|bc> integrals:      0.134 (MW) /      1.073 (MB)
	Size of irrep 2 of <ia|bc> integrals:      0.236 (MW) /      1.892 (MB)
	Size of irrep 3 of <ia|bc> integrals:      0.178 (MW) /      1.421 (MB)
	Size of irrep 4 of <ia|bc> integrals:      0.134 (MW) /      1.073 (MB)
	Size of irrep 5 of <ia|bc> integrals:      0.309 (MW) /      2.473 (MB)
	Size of irrep 6 of <ia|bc> integrals:      0.178 (MW) /      1.421 (MB)
	Size of irrep 7 of <ia|bc> integrals:      0.236 (MW) /      1.892 (MB)
	Total:                                     1.711 (MW) /     13.688 (MB)

	Size of irrep 0 of <Ia|Bc> integrals:      0.491 (MW) /      3.928 (MB)
	Size of irrep 1 of <Ia|Bc> integrals:      0.226 (MW) /      1.810 (MB)
	Size of irrep 2 of <Ia|Bc> integrals:      0.341 (MW) /      2.730 (MB)
	Size of irrep 3 of <Ia|Bc> integrals:      0.347 (MW) /      2.773 (MB)
	Size of irrep 4 of <Ia|Bc> integrals:      0.229 (MW) /      1.834 (MB)
	Size of irrep 5 of <Ia|Bc> integrals:      0.495 (MW) /      3.957 (MB)
	Size of irrep 6 of <Ia|Bc> integrals:      0.347 (MW) /      2.773 (MB)
	Size of irrep 7 of <Ia|Bc> integrals:      0.338 (MW) /      2.704 (MB)
	Total:                                     2.814 (MW) /     22.509 (MB)

	Size of irrep 0 of <iA|bC> integrals:      0.298 (MW) /      2.381 (MB)
	Size of irrep 1 of <iA|bC> integrals:      0.130 (MW) /      1.038 (MB)
	Size of irrep 2 of <iA|bC> integrals:      0.234 (MW) /      1.874 (MB)
	Size of irrep 3 of <iA|bC> integrals:      0.172 (MW) /      1.373 (MB)
	Size of irrep 4 of <iA|bC> integrals:      0.133 (MW) /      1.062 (MB)
	Size of irrep 5 of <iA|bC> integrals:      0.301 (MW) /      2.410 (MB)
	Size of irrep 6 of <iA|bC> integrals:      0.172 (MW) /      1.373 (MB)
	Size of irrep 7 of <iA|bC> integrals:      0.231 (MW) /      1.848 (MB)
	Total:                                     1.670 (MW) /     13.357 (MB)

	Size of irrep 0 of tIjAb amplitudes:       0.015 (MW) /      0.119 (MB)
	Size of irrep 1 of tIjAb amplitudes:       0.003 (MW) /      0.024 (MB)
	Size of irrep 2 of tIjAb amplitudes:       0.007 (MW) /      0.054 (MB)
	Size of irrep 3 of tIjAb amplitudes:       0.003 (MW) /      0.027 (MB)
	Size of irrep 4 of tIjAb amplitudes:       0.000 (MW) /      0.000 (MB)
	Size of irrep 5 of tIjAb amplitudes:       0.011 (MW) /      0.089 (MB)
	Size of irrep 6 of tIjAb amplitudes:       0.003 (MW) /      0.027 (MB)
	Size of irrep 7 of tIjAb amplitudes:       0.010 (MW) /      0.080 (MB)
	Total:                                     0.053 (MW) /      0.420 (MB)

	Nuclear Rep. energy          =     47.85821480325067
	SCF energy                   =   -577.76414150632343
	One-electron energy          =    -19.11435096488775
	Two-electron (AA) energy     =      2.52084841355152
	Two-electron (BB) energy     =      0.73648422679082
	Two-electron (AB) energy     =      4.53914920142364
	Two-electron energy          =      7.79648184176598
	Reference energy             =   -577.76414150632536

*** tstop() called on cqc05 at Thu Aug 20 20:16:45 2020
Module time:
	user time   =       9.16 seconds =       0.15 minutes
	system time =       5.75 seconds =       0.10 minutes
	total time  =         15 seconds =       0.25 minutes
Total time:
	user time   =      25.31 seconds =       0.42 minutes
	system time =       6.28 seconds =       0.10 minutes
	total time  =         32 seconds =       0.53 minutes

*** tstart() called on cqc05
*** at Thu Aug 20 20:16:45 2020

            **************************
            *                        *
            *        CCENERGY        *
            *                        *
            **************************

    Nuclear Rep. energy (wfn)     =   47.858214803250668
    SCF energy          (wfn)     = -577.764141506323426
    Reference energy    (file100) = -577.764141506325359

    Input parameters:
    -----------------
    Wave function   =     CCSD
    Reference wfn   =     UHF
    Brueckner       =     No

      * MP2 total energy                      = -577.953842040770610
      * CCSD total energy                     = -577.975032065316441
*** Psi4 exiting successfully. Buy a developer a beer!
