                               Psi4 1.2a1.dev938

  ==> Input File <==

--------------------------------------------------------------------------
# Any line starting with the # character is a comment line
memory 250000 mb
molecule molecule{
0 3
Si         0.0000000000        0.0000000000       -1.0836042810
Si         0.0000000000        0.0000000000        1.0836042810
}

set {
  reference uhf
  basis aug-cc-pv(d+d)z
  scf_type OUT_OF_CORE
  freeze_core true
}

energy('ccsd')
--------------------------------------------------------------------------

    Molecular point group: d2h

    Geometry (in Angstrom), charge = 0, multiplicity = 3:

       Center              X                  Y                   Z               Mass
    ------------   -----------------  -----------------  -----------------  -----------------
          SI          0.000000000000     0.000000000000    -1.083604281000    27.976926532460
          SI          0.000000000000     0.000000000000     1.083604281000    27.976926532460

  Charge       = 0
  Multiplicity = 3
  Basis Set: AUG-CC-PV(D+D)Z
    Blend: AUG-CC-PV(D+D)Z

    Orbital Energies (a.u.)
    -----------------------

    Alpha Occupied:

       1Ag   -68.802211     1B1u  -68.802208     2Ag    -6.149380
       2B1u   -6.149033     1B2u   -4.254071     1B3u   -4.254071
       1B2g   -4.253902     1B3g   -4.253902     3Ag    -4.248094
       3B1u   -4.246562     4Ag    -0.744470     4B1u   -0.486943
       2B2u   -0.327478     2B3u   -0.327478     5Ag    -0.301272

    Alpha Virtual:

       2B2g    0.015445     2B3g    0.015445     5B1u    0.045770
       3B2u    0.068298     3B3u    0.068298     6Ag     0.069849
       7Ag     0.079278     3B3g    0.104449     3B2g    0.104449
       6B1u    0.154771     1B1g    0.161386     8Ag     0.161386
       7B1u    0.207681     4B3u    0.241334     4B2u    0.241334
       9Ag     0.272656     8B1u    0.275931     1Au     0.275931
       4B2g    0.368519     4B3g    0.368519     9B1u    0.387303
       5B3u    0.505363     5B2u    0.505363    10Ag     0.559223
      11Ag     0.576306     5B2g    0.617698     5B3g    0.617698
       6B3u    0.618259     6B2u    0.618259    10B1u    0.627194
      12Ag     0.627838     2B1g    0.627838     2Au     0.703575
      11B1u    0.703575    13Ag     0.774497     6B2g    0.847426
       6B3g    0.847426    12B1u    1.010140    13B1u    1.210158
      14Ag     3.310072     3B1g    3.310072     7B2u    3.331821
       7B3u    3.331821     3Au     3.349785    14B1u    3.349785
      15B1u    3.412668     7B3g    3.420203     7B2g    3.420203
      15Ag     3.484260

    Beta Occupied:

       1Ag   -68.798514     1B1u  -68.798512     2Ag    -6.144580
       2B1u   -6.144337     3Ag    -4.246959     3B1u   -4.245498
       1B2u   -4.242470     1B3u   -4.242470     1B3g   -4.242305
       1B2g   -4.242305     4Ag    -0.634243     4B1u   -0.443898
       5Ag    -0.296552

    Beta Virtual:

       2B2u   -0.013999     2B3u   -0.013999     5B1u    0.047344
       2B2g    0.057539     2B3g    0.057539     6Ag     0.078272
       7Ag     0.087464     3B2u    0.088673     3B3u    0.088673
       3B3g    0.135666     3B2g    0.135666     6B1u    0.162408
       1B1g    0.211201     8Ag     0.211201     7B1u    0.218769
       4B3u    0.262714     4B2u    0.262714     9Ag     0.288380
       1Au     0.294162     8B1u    0.294162     4B2g    0.384112
       4B3g    0.384112     9B1u    0.404056     5B3u    0.549390
       5B2u    0.549390    10Ag     0.565513    11Ag     0.602518
      10B1u    0.627308     6B3u    0.640363     6B2u    0.640363
       5B2g    0.640475     5B3g    0.640475    12Ag     0.674377
       2B1g    0.674377    11B1u    0.742389     2Au     0.742389
      13Ag     0.794082     6B2g    0.873911     6B3g    0.873911
      12B1u    1.025861    13B1u    1.221263    14Ag     3.316737
       3B1g    3.316737     7B2u    3.336579     7B3u    3.336579
      14B1u    3.355779     3Au     3.355779    15B1u    3.413837
       7B3g    3.423492     7B2g    3.423492    15Ag     3.486451

    Final Occupation by Irrep:
             Ag   B1g   B2g   B3g    Au   B1u   B2u   B3u
    DOCC [     5,    0,    1,    1,    0,    4,    1,    1 ]
    SOCC [     0,    0,    0,    0,    0,    0,    1,    1 ]

  Energy converged.

  @UHF Final Energy:  -577.76680798413111

   => Energetics <=

    Nuclear Repulsion Energy =             47.8582148032506680
    One-Electron Energy =                -896.9263265441543354
    Two-Electron Energy =                 271.3013037567724837
    PCM Polarization Energy =               0.0000000000000000
    Total Energy =                       -577.7668079841312192

    Alert: EFP and PCM quantities not currently incorporated into SCF psivars.
  UHF NO Occupations:
  HONO-2 :    4B1u 1.9950944
  HONO-1 :    2B3u 1.0000000
  HONO-0 :    2B2u 1.0000000
  LUNO+0 :    5B1u 0.0049056
  LUNO+1 :    6 Ag 0.0038974
  LUNO+2 :    7 Ag 0.0005579
  LUNO+3 :    3B2u 0.0000002

Properties will be evaluated at   0.000000,   0.000000,   0.000000 Bohr

Properties computed using the SCF density matrix

  Nuclear Dipole Moment: (a.u.)
     X:     0.0000      Y:     0.0000      Z:     0.0000

  Electronic Dipole Moment: (a.u.)
     X:     0.0000      Y:     0.0000      Z:     0.0000

  Dipole Moment: (a.u.)
     X:     0.0000      Y:     0.0000      Z:     0.0000     Total:     0.0000

  Dipole Moment: (Debye)
     X:     0.0000      Y:     0.0000      Z:     0.0000     Total:     0.0000

*** tstop() called on cqc05 at Thu Aug 20 19:53:29 2020
Module time:
	user time   =       1.26 seconds =       0.02 minutes
	system time =       0.02 seconds =       0.00 minutes
	total time  =          1 seconds =       0.02 minutes
Total time:
	user time   =       1.26 seconds =       0.02 minutes
	system time =       0.02 seconds =       0.00 minutes
	total time  =          1 seconds =       0.02 minutes

*** tstart() called on cqc05
*** at Thu Aug 20 19:53:29 2020

	Wfn Parameters:
	--------------------
	Wavefunction         = CCSD
	Number of irreps     = 8
	Number of MOs        = 64
	Number of active MOs = 54
	AO-Basis             = NONE
	Semicanonical        = false
	Reference            = UHF
	Print Level          = 1

	IRREP	# MOs	# FZDC	# DOCC	# SOCC	# VIRT	# FZVR
	-----	-----	------	------	------	------	------
	 Ag	   15	    3	    2	    0	    10	    0
	 B1g	   3	    0	    0	    0	    3	    0
	 B2g	   7	    1	    0	    0	    6	    0
	 B3g	   7	    1	    0	    0	    6	    0
	 Au	   3	    0	    0	    0	    3	    0
	 B1u	   15	    3	    1	    0	    11	    0
	 B2u	   7	    1	    0	    1	    5	    0
	 B3u	   7	    1	    0	    1	    5	    0
	Transforming integrals...
	IWL integrals will be deleted.
	(OO|OO)...
	Presorting SO-basis two-electron integrals.
	Sorting File: SO Ints (nn|nn) nbuckets = 1
	Transforming the one-electron integrals and constructing Fock matrices
	Starting AA/AB first half-transformation.
	Sorting AA/AB half-transformed integrals.
	Starting BB first half-transformation.
	Sorting BB half-transformed integrals.
	First half integral transformation complete.
	Starting AA second half-transformation.
	Starting AB second half-transformation.
	Starting BB second half-transformation.
	Two-electron integral transformation complete.
	(OO|OV)...
	Starting AA second half-transformation.
	Starting AB second half-transformation.
	Starting BB second half-transformation.
	Two-electron integral transformation complete.
	(OO|VV)...
	Starting AA second half-transformation.
	Starting AB second half-transformation.
	Starting BB second half-transformation.
	Two-electron integral transformation complete.
	(OV|OO)...
	Starting AA/AB first half-transformation.
	Sorting AA/AB half-transformed integrals.
	Starting BB first half-transformation.
	Sorting BB half-transformed integrals.
	First half integral transformation complete.
	Starting AA second half-transformation.
	Starting AB second half-transformation.
	Starting BB second half-transformation.
	Two-electron integral transformation complete.
	(OV|OV)...
	Starting AA second half-transformation.
	Starting AB second half-transformation.
	Starting BB second half-transformation.
	Two-electron integral transformation complete.
	(OV|VV)...
	Starting AA second half-transformation.
	Starting AB second half-transformation.
	Starting BB second half-transformation.
	Two-electron integral transformation complete.
	(VV|OO)...
	Starting AA/AB first half-transformation.
	Sorting AA/AB half-transformed integrals.
	Starting BB first half-transformation.
	Sorting BB half-transformed integrals.
	First half integral transformation complete.
	Starting AA second half-transformation.
	Starting AB second half-transformation.
	Starting BB second half-transformation.
	Two-electron integral transformation complete.
	(VV|OV)...
	Starting AA second half-transformation.
	Starting AB second half-transformation.
	Starting BB second half-transformation.
	Two-electron integral transformation complete.
	(VV|VV)...
	Starting AA second half-transformation.
	Starting AB second half-transformation.
	Starting BB second half-transformation.
	Two-electron integral transformation complete.
	Frozen core energy     =   -614.29397797511820

	Size of irrep 0 of <AB|CD> integrals:      0.024 (MW) /      0.195 (MB)
	Size of irrep 1 of <AB|CD> integrals:      0.015 (MW) /      0.123 (MB)
	Size of irrep 2 of <AB|CD> integrals:      0.022 (MW) /      0.175 (MB)
	Size of irrep 3 of <AB|CD> integrals:      0.022 (MW) /      0.175 (MB)
	Size of irrep 4 of <AB|CD> integrals:      0.015 (MW) /      0.121 (MB)
	Size of irrep 5 of <AB|CD> integrals:      0.032 (MW) /      0.256 (MB)
	Size of irrep 6 of <AB|CD> integrals:      0.022 (MW) /      0.178 (MB)
	Size of irrep 7 of <AB|CD> integrals:      0.022 (MW) /      0.178 (MB)
	Total:                                     0.175 (MW) /      1.401 (MB)

	Size of irrep 0 of <ab|cd> integrals:      0.028 (MW) /      0.220 (MB)
	Size of irrep 1 of <ab|cd> integrals:      0.018 (MW) /      0.146 (MB)
	Size of irrep 2 of <ab|cd> integrals:      0.026 (MW) /      0.210 (MB)
	Size of irrep 3 of <ab|cd> integrals:      0.026 (MW) /      0.210 (MB)
	Size of irrep 4 of <ab|cd> integrals:      0.018 (MW) /      0.146 (MB)
	Size of irrep 5 of <ab|cd> integrals:      0.036 (MW) /      0.292 (MB)
	Size of irrep 6 of <ab|cd> integrals:      0.026 (MW) /      0.210 (MB)
	Size of irrep 7 of <ab|cd> integrals:      0.026 (MW) /      0.210 (MB)
	Total:                                     0.205 (MW) /      1.644 (MB)

	Size of irrep 0 of <Ab|Cd> integrals:      0.138 (MW) /      1.101 (MB)
	Size of irrep 1 of <Ab|Cd> integrals:      0.067 (MW) /      0.533 (MB)
	Size of irrep 2 of <Ab|Cd> integrals:      0.096 (MW) /      0.769 (MB)
	Size of irrep 3 of <Ab|Cd> integrals:      0.096 (MW) /      0.769 (MB)
	Size of irrep 4 of <Ab|Cd> integrals:      0.067 (MW) /      0.533 (MB)
	Size of irrep 5 of <Ab|Cd> integrals:      0.137 (MW) /      1.095 (MB)
	Size of irrep 6 of <Ab|Cd> integrals:      0.097 (MW) /      0.774 (MB)
	Size of irrep 7 of <Ab|Cd> integrals:      0.097 (MW) /      0.774 (MB)
	Total:                                     0.793 (MW) /      6.346 (MB)

	Size of irrep 0 of <IA|BC> integrals:      0.015 (MW) /      0.118 (MB)
	Size of irrep 1 of <IA|BC> integrals:      0.005 (MW) /      0.038 (MB)
	Size of irrep 2 of <IA|BC> integrals:      0.009 (MW) /      0.073 (MB)
	Size of irrep 3 of <IA|BC> integrals:      0.009 (MW) /      0.073 (MB)
	Size of irrep 4 of <IA|BC> integrals:      0.005 (MW) /      0.041 (MB)
	Size of irrep 5 of <IA|BC> integrals:      0.016 (MW) /      0.126 (MB)
	Size of irrep 6 of <IA|BC> integrals:      0.009 (MW) /      0.069 (MB)
	Size of irrep 7 of <IA|BC> integrals:      0.009 (MW) /      0.069 (MB)
	Total:                                     0.076 (MW) /      0.609 (MB)

	Size of irrep 0 of <ia|bc> integrals:      0.012 (MW) /      0.095 (MB)
	Size of irrep 1 of <ia|bc> integrals:      0.002 (MW) /      0.019 (MB)
	Size of irrep 2 of <ia|bc> integrals:      0.006 (MW) /      0.047 (MB)
	Size of irrep 3 of <ia|bc> integrals:      0.006 (MW) /      0.047 (MB)
	Size of irrep 4 of <ia|bc> integrals:      0.002 (MW) /      0.019 (MB)
	Size of irrep 5 of <ia|bc> integrals:      0.012 (MW) /      0.098 (MB)
	Size of irrep 6 of <ia|bc> integrals:      0.006 (MW) /      0.047 (MB)
	Size of irrep 7 of <ia|bc> integrals:      0.006 (MW) /      0.047 (MB)
	Total:                                     0.052 (MW) /      0.418 (MB)

	Size of irrep 0 of <Ia|Bc> integrals:      0.016 (MW) /      0.128 (MB)
	Size of irrep 1 of <Ia|Bc> integrals:      0.005 (MW) /      0.043 (MB)
	Size of irrep 2 of <Ia|Bc> integrals:      0.010 (MW) /      0.079 (MB)
	Size of irrep 3 of <Ia|Bc> integrals:      0.010 (MW) /      0.079 (MB)
	Size of irrep 4 of <Ia|Bc> integrals:      0.005 (MW) /      0.043 (MB)
	Size of irrep 5 of <Ia|Bc> integrals:      0.016 (MW) /      0.130 (MB)
	Size of irrep 6 of <Ia|Bc> integrals:      0.010 (MW) /      0.077 (MB)
	Size of irrep 7 of <Ia|Bc> integrals:      0.010 (MW) /      0.077 (MB)
	Total:                                     0.082 (MW) /      0.658 (MB)

	Size of irrep 0 of <iA|bC> integrals:      0.012 (MW) /      0.092 (MB)
	Size of irrep 1 of <iA|bC> integrals:      0.002 (MW) /      0.019 (MB)
	Size of irrep 2 of <iA|bC> integrals:      0.005 (MW) /      0.042 (MB)
	Size of irrep 3 of <iA|bC> integrals:      0.005 (MW) /      0.042 (MB)
	Size of irrep 4 of <iA|bC> integrals:      0.002 (MW) /      0.019 (MB)
	Size of irrep 5 of <iA|bC> integrals:      0.012 (MW) /      0.095 (MB)
	Size of irrep 6 of <iA|bC> integrals:      0.005 (MW) /      0.040 (MB)
	Size of irrep 7 of <iA|bC> integrals:      0.005 (MW) /      0.040 (MB)
	Total:                                     0.048 (MW) /      0.388 (MB)

	Size of irrep 0 of tIjAb amplitudes:       0.002 (MW) /      0.015 (MB)
	Size of irrep 1 of tIjAb amplitudes:       0.000 (MW) /      0.000 (MB)
	Size of irrep 2 of tIjAb amplitudes:       0.000 (MW) /      0.002 (MB)
	Size of irrep 3 of tIjAb amplitudes:       0.000 (MW) /      0.002 (MB)
	Size of irrep 4 of tIjAb amplitudes:       0.000 (MW) /      0.000 (MB)
	Size of irrep 5 of tIjAb amplitudes:       0.001 (MW) /      0.012 (MB)
	Size of irrep 6 of tIjAb amplitudes:       0.001 (MW) /      0.005 (MB)
	Size of irrep 7 of tIjAb amplitudes:       0.001 (MW) /      0.005 (MB)
	Total:                                     0.005 (MW) /      0.042 (MB)

	Nuclear Rep. energy          =     47.85821480325067
	SCF energy                   =   -577.76680798413111
	One-electron energy          =    -19.09975565096706
	Two-electron (AA) energy     =      2.52923101308676
	Two-electron (BB) energy     =      0.69223281159842
	Two-electron (AB) energy     =      4.54724701401876
	Two-electron energy          =      7.76871083870393
	Reference energy             =   -577.76680798413065

*** tstop() called on cqc05 at Thu Aug 20 19:53:29 2020
Module time:
	user time   =       0.18 seconds =       0.00 minutes
	system time =       0.11 seconds =       0.00 minutes
	total time  =          0 seconds =       0.00 minutes
Total time:
	user time   =       1.45 seconds =       0.02 minutes
	system time =       0.13 seconds =       0.00 minutes
	total time  =          1 seconds =       0.02 minutes

*** tstart() called on cqc05
*** at Thu Aug 20 19:53:29 2020

            **************************
            *                        *
            *        CCENERGY        *
            *                        *
            **************************

    Nuclear Rep. energy (wfn)     =   47.858214803250668
    SCF energy          (wfn)     = -577.766807984131106
    Reference energy    (file100) = -577.766807984130651

    Input parameters:
    -----------------
    Wave function   =     CCSD
    Reference wfn   =     UHF
    Brueckner       =     No
    Memory (Mbytes) =     250000.0
    Maxiter         =     50
    R_Convergence   =     1.0e-07
    E_Convergence   =     1.0e-06
    Restart         =     Yes
    DIIS            =     Yes
    AO Basis        =     NONE
    ABCD            =     NEW
    Cache Level     =     2
    Cache Type      =     LRU
    Print Level     =     1
    Num. of threads =     4
    # Amps to Print =     10
    Print MP2 Amps? =     No
    Analyze T2 Amps =     No
    Print Pair Ener =     No
    Local CC        =     No
    SCS-MP2         =     False
    SCSN-MP2        =     False
    SCS-CCSD        =     False

MP2 correlation energy -0.1300512347950450
                Solving CC Amplitude Equations
                ------------------------------
  Iter             Energy              RMS        T1Diag      D1Diag    New D1Diag    D2Diag
  ----     ---------------------    ---------   ----------  ----------  ----------   --------
     0        -0.130051234795045    0.000e+00    0.000000    0.000000    0.000000    0.000000
     1        -0.153004708306970    8.006e-02    0.013697    0.000000    0.000000    0.000000
     2        -0.162882284941022    3.239e-02    0.022204    0.000000    0.000000    0.000000
     3        -0.163617703268923    8.446e-03    0.024808    0.000000    0.000000    0.000000
     4        -0.163672135465432    2.704e-03    0.025406    0.000000    0.000000    0.000000
     5        -0.163676656907673    9.007e-04    0.025581    0.000000    0.000000    0.000000
     6        -0.163671784705203    2.898e-04    0.025602    0.000000    0.000000    0.000000
     7        -0.163672960080531    1.077e-04    0.025601    0.000000    0.000000    0.000000
     8        -0.163674241534932    3.759e-05    0.025603    0.000000    0.000000    0.000000
     9        -0.163673740658399    1.278e-05    0.025602    0.000000    0.000000    0.000000
    10        -0.163673723073470    4.597e-06    0.025602    0.000000    0.000000    0.000000
    11        -0.163673732807847    1.543e-06    0.025602    0.000000    0.000000    0.000000
    12        -0.163673791440091    5.406e-07    0.025602    0.000000    0.000000    0.000000
    13        -0.163673801534340    1.684e-07    0.025602    0.000000    0.000000    0.000000
    14        -0.163673800005212    6.594e-08    0.025602    0.000000    0.000000    0.000000
    14        -0.163673800005212    6.594e-08    0.025602    0.000000    0.000000    0.000000

    Iterations converged.

    CCSD corr. energy   =   -0.163673800005212
    PPL corr. energy    =    0.052068816151277
    OS PPL corr. energy =    0.043143374318242
    SS PPL corr. energy =    0.008925441833036
    Largest TIA Amplitudes:
              3  40         0.0197151984
              4  45         0.0197151984
              3  42        -0.0142855689
              4  47        -0.0142855689
              2  29        -0.0117029491
              1   7        -0.0083968760
              1   0        -0.0079219123
              0   0         0.0070755040
              2  28         0.0070034511
              2  32         0.0064572193

    Largest Tia Amplitudes:
              2  30         0.0384499305
              2  29         0.0220460125
              0   3        -0.0201155879
              2  32        -0.0169782414
              0   5        -0.0134473387
              2  28        -0.0129218481
              0   1         0.0128990181
              0   7         0.0110627676
              2  33        -0.0091464681
              1   3         0.0045217372

    Largest TIJAB Amplitudes:
      4   3  19  13         0.0935527555

      * MP2 total energy                      = -577.896859218925670
      * CCSD total energy                     = -577.930481784135850
*** Psi4 exiting successfully. Buy a developer a beer!
