                               Psi4 1.2a1.dev938

  ==> Input File <==

--------------------------------------------------------------------------
# Any line starting with the # character is a comment line
memory 250000 mb
molecule molecule{
0 3
Si         0.0000000000        0.0000000000       -1.0836042810
Si         0.0000000000        0.0000000000        1.0836042810
}

set {
  reference uhf
  basis aug-cc-pv(t+d)z
  scf_type OUT_OF_CORE
  freeze_core true
}

energy('ccsd')
--------------------------------------------------------------------------

    Molecular point group: d2h

    Geometry (in Angstrom), charge = 0, multiplicity = 3:

       Center              X                  Y                   Z               Mass
    ------------   -----------------  -----------------  -----------------  -----------------
          SI          0.000000000000     0.000000000000    -1.083604281000    27.976926532460
          SI          0.000000000000     0.000000000000     1.083604281000    27.976926532460

  Charge       = 0
  Multiplicity = 3
  Basis Set: AUG-CC-PV(T+D)Z
    Blend: AUG-CC-PV(T+D)Z

    Orbital Energies (a.u.)
    -----------------------

    Alpha Occupied:

       1Ag   -68.817223     1B1u  -68.817219     2Ag    -6.162538
       2B1u   -6.162139     3Ag    -4.270998     3B1u   -4.269373
       1B3u   -4.266876     1B2g   -4.266687     1B2u   -4.260769
       1B3g   -4.260591     4Ag    -0.745834     4B1u   -0.512140
       5Ag    -0.355791     2B3u   -0.322701     2B2u   -0.285571

    Alpha Virtual:

       2B2g    0.008100     2B3g    0.025772     5B1u    0.037406
       6Ag     0.057900     3B3u    0.063787     3B2u    0.070366
       7Ag     0.073694     3B2g    0.082558     3B3g    0.089077
       6B1u    0.129018     1B1g    0.135092     8Ag     0.135862
       7B1u    0.171416     4B3u    0.181607     4B2u    0.191693
       9Ag     0.193442     1Au     0.202220     8B1u    0.203265
       4B2g    0.234735     4B3g    0.242412     9B1u    0.262061
       5B3u    0.347898     5B2u    0.369183    10Ag     0.371158
       2B1g    0.399284    11Ag     0.404084     6B3u    0.445910
       6B2u    0.457623     7B3u    0.463181     7B2u    0.467649
      12Ag     0.477111    10B1u    0.485591     2Au     0.486533
      13Ag     0.504279     5B2g    0.507402    11B1u    0.507485
       5B3g    0.519651     3B1g    0.540572    14Ag     0.543206
       6B2g    0.553486     6B3g    0.564179     7B2g    0.567131
       7B3g    0.572425    12B1u    0.579592     8B3u    0.698452
      13B1u    0.705831     3Au     0.706055     8B2u    0.711970
      14B1u    0.774995     8B2g    0.861581     8B3g    0.879829
      15Ag     0.993371    15B1u    1.047999     9B3u    1.184288
       9B2u    1.205917    16Ag     1.232048     4B1g    1.232111
      17Ag     1.259404    16B1u    1.295183     4Au     1.295268
       5B1g    1.340632    18Ag     1.342368    10B3u    1.406011
      10B2u    1.406062    17B1u    1.410373     9B2g    1.443889
       9B3g    1.457639    11B3u    1.482890    10B2g    1.485745
      10B3g    1.485771    11B2u    1.502697    18B1u    1.635223
       5Au     1.635259    19Ag     1.726713    11B2g    1.747451
      11B3g    1.766327    19B1u    1.800248    12B3u    2.516784
      12B2u    2.533420    20Ag     2.753363    12B2g    2.763285
      12B3g    2.781076    20B1u    2.969470    21Ag     3.300323
      21B1u    3.875266    13B3u    4.750152    13B2u    4.758990
      22Ag     4.767555     6B1g    4.767676     6Au     4.805740
      22B1u    4.805816    23Ag     4.831806    13B2g    4.980016
      13B3g    4.989703    23B1u    5.521931

    Beta Occupied:

       1Ag   -68.812062     1B1u  -68.812061     2Ag    -6.156801
       2B1u   -6.156592     1B2u   -4.258076     1B3g   -4.257926
       1B3u   -4.253694     1B2g   -4.253556     3Ag    -4.251065
       3B1u   -4.249645     4Ag    -0.623481     4B1u   -0.407425
       2B2u   -0.270539

    Beta Virtual:

       5Ag    -0.022622     2B3u   -0.014416     2B3g    0.035280
       5B1u    0.038935     2B2g    0.053526     6Ag     0.069360
       3B2u    0.072083     3B3u    0.081615     7Ag     0.085974
       3B3g    0.092595     3B2g    0.111137     6B1u    0.142418
       1B1g    0.147815     8Ag     0.147857     7B1u    0.185650
       4B3u    0.201401     4B2u    0.202687     1Au     0.206064
       8B1u    0.206443     9Ag     0.214174     4B3g    0.243413
       4B2g    0.249560     9B1u    0.301458     5B2u    0.394231
      10Ag     0.411867     5B3u    0.412957     2B1g    0.429807
      11Ag     0.431527     6B2u    0.470598     6B3u    0.470702
       7B2u    0.482054     7B3u    0.484738    10B1u    0.504046
       2Au     0.504148    12Ag     0.509570    13Ag     0.531195
       5B2g    0.531588     5B3g    0.535321    11B1u    0.538954
       3B1g    0.552175    14Ag     0.553063     6B3g    0.568368
       6B2g    0.569763     7B3g    0.575456     7B2g    0.578466
      12B1u    0.595948    13B1u    0.713910     3Au     0.714239
       8B3u    0.717705     8B2u    0.721099    14B1u    0.783934
       8B2g    0.893110     8B3g    0.893690    15Ag     1.017568
      15B1u    1.082618     9B3u    1.223034     9B2u    1.225992
       4B1g    1.244481    16Ag     1.244514    17Ag     1.296578
      16B1u    1.305211     4Au     1.305275    18Ag     1.369142
       5B1g    1.369154    10B3u    1.420417    10B2u    1.420421
      17B1u    1.435195     9B2g    1.463619     9B3g    1.470799
      10B2g    1.497706    10B3g    1.497707    11B3u    1.518852
      11B2u    1.525076    18B1u    1.655042     5Au     1.655121
      19Ag     1.752233    11B2g    1.775644    11B3g    1.782225
      19B1u    1.825098    12B3u    2.536965    12B2u    2.537061
      12B2g    2.782415    20Ag     2.783287    12B3g    2.785231
      20B1u    2.987546    21Ag     3.306720    21B1u    3.886197
      13B3u    4.758449    13B2u    4.764084    22Ag     4.770674
       6B1g    4.770748     6Au     4.808593    22B1u    4.808612
      23Ag     4.841189    13B2g    4.987418    13B3g    4.993746
      23B1u    5.530901

    Final Occupation by Irrep:
             Ag   B1g   B2g   B3g    Au   B1u   B2u   B3u
    DOCC [     4,    0,    1,    1,    0,    4,    2,    1 ]
    SOCC [     1,    0,    0,    0,    0,    0,    0,    1 ]

  Energy converged.

  @UHF Final Energy:  -577.76026258362344

   => Energetics <=

    Nuclear Repulsion Energy =             47.8582148032506680
    One-Electron Energy =                -896.6975831737926228
    Two-Electron Energy =                 271.0791057869184328
    Total Energy =                       -577.7602625836234438

  UHF NO Occupations:
  HONO-2 :    4B1u 1.9901427
  HONO-1 :    5 Ag 1.0000000
  HONO-0 :    2B3u 1.0000000
  LUNO+0 :    5B1u 0.0098573
  LUNO+1 :    6 Ag 0.0040567
  LUNO+2 :    3B2u 0.0006629
  LUNO+3 :    6B1u 0.0000028

Properties will be evaluated at   0.000000,   0.000000,   0.000000 Bohr

Properties computed using the SCF density matrix

  Nuclear Dipole Moment: (a.u.)
     X:     0.0000      Y:     0.0000      Z:     0.0000

  Electronic Dipole Moment: (a.u.)
     X:     0.0000      Y:     0.0000      Z:     0.0000

  Dipole Moment: (a.u.)
     X:     0.0000      Y:     0.0000      Z:     0.0000     Total:     0.0000

  Dipole Moment: (Debye)
     X:     0.0000      Y:     0.0000      Z:     0.0000     Total:     0.0000

*** tstop() called on cqc05 at Thu Aug 20 19:57:52 2020
Module time:
	user time   =       3.37 seconds =       0.06 minutes
	system time =       0.12 seconds =       0.00 minutes
	total time  =          3 seconds =       0.05 minutes
Total time:
	user time   =       3.37 seconds =       0.06 minutes
	system time =       0.12 seconds =       0.00 minutes
	total time  =          3 seconds =       0.05 minutes

*** tstart() called on cqc05
*** at Thu Aug 20 19:57:52 2020

	Wfn Parameters:
	--------------------
	Wavefunction         = CCSD
	Number of irreps     = 8
	Number of MOs        = 110
	Number of active MOs = 100
	AO-Basis             = NONE
	Semicanonical        = false
	Reference            = UHF
	Print Level          = 1

	IRREP	# MOs	# FZDC	# DOCC	# SOCC	# VIRT	# FZVR
	-----	-----	------	------	------	------	------
	 Ag	   23	    3	    1	    1	    18	    0
	 B1g	   6	    0	    0	    0	    6	    0
	 B2g	   13	    1	    0	    0	    12	    0
	 B3g	   13	    1	    0	    0	    12	    0
	 Au	   6	    0	    0	    0	    6	    0
	 B1u	   23	    3	    1	    0	    19	    0
	 B2u	   13	    1	    1	    0	    11	    0
	 B3u	   13	    1	    0	    1	    11	    0
	Transforming integrals...
	IWL integrals will be deleted.
	(OO|OO)...
	Presorting SO-basis two-electron integrals.
	Sorting File: SO Ints (nn|nn) nbuckets = 1
	Transforming the one-electron integrals and constructing Fock matrices
	Starting AA/AB first half-transformation.
	Sorting AA/AB half-transformed integrals.
	Starting BB first half-transformation.
	Sorting BB half-transformed integrals.
	First half integral transformation complete.
	Starting AA second half-transformation.
	Starting AB second half-transformation.
	Starting BB second half-transformation.
	Two-electron integral transformation complete.
	(OO|OV)...
	Starting AA second half-transformation.
	Starting AB second half-transformation.
	Starting BB second half-transformation.
	Two-electron integral transformation complete.
	(OO|VV)...
	Starting AA second half-transformation.
	Starting AB second half-transformation.
	Starting BB second half-transformation.
	Two-electron integral transformation complete.
	(OV|OO)...
	Starting AA/AB first half-transformation.
	Sorting AA/AB half-transformed integrals.
	Starting BB first half-transformation.
	Sorting BB half-transformed integrals.
	First half integral transformation complete.
	Starting AA second half-transformation.
	Starting AB second half-transformation.
	Starting BB second half-transformation.
	Two-electron integral transformation complete.
	(OV|OV)...
	Starting AA second half-transformation.
	Starting AB second half-transformation.
	Starting BB second half-transformation.
	Two-electron integral transformation complete.
	(OV|VV)...
	Starting AA second half-transformation.
	Starting AB second half-transformation.
	Starting BB second half-transformation.
	Two-electron integral transformation complete.
	(VV|OO)...
	Starting AA/AB first half-transformation.
	Sorting AA/AB half-transformed integrals.
	Starting BB first half-transformation.
	Sorting BB half-transformed integrals.
	First half integral transformation complete.
	Starting AA second half-transformation.
	Starting AB second half-transformation.
	Starting BB second half-transformation.
	Two-electron integral transformation complete.
	(VV|OV)...
	Starting AA second half-transformation.
	Starting AB second half-transformation.
	Starting BB second half-transformation.
	Two-electron integral transformation complete.
	(VV|VV)...
	Starting AA second half-transformation.
	Starting AB second half-transformation.
	Starting BB second half-transformation.
	Two-electron integral transformation complete.
	Frozen core energy     =   -614.30209542252999

	Size of irrep 0 of <AB|CD> integrals:      0.355 (MW) /      2.842 (MB)
	Size of irrep 1 of <AB|CD> integrals:      0.237 (MW) /      1.897 (MB)
	Size of irrep 2 of <AB|CD> integrals:      0.317 (MW) /      2.536 (MB)
	Size of irrep 3 of <AB|CD> integrals:      0.317 (MW) /      2.536 (MB)
	Size of irrep 4 of <AB|CD> integrals:      0.236 (MW) /      1.890 (MB)
	Size of irrep 5 of <AB|CD> integrals:      0.412 (MW) /      3.297 (MB)
	Size of irrep 6 of <AB|CD> integrals:      0.318 (MW) /      2.545 (MB)
	Size of irrep 7 of <AB|CD> integrals:      0.318 (MW) /      2.545 (MB)
	Total:                                     2.511 (MW) /     20.087 (MB)

	Size of irrep 0 of <ab|cd> integrals:      0.391 (MW) /      3.125 (MB)
	Size of irrep 1 of <ab|cd> integrals:      0.254 (MW) /      2.032 (MB)
	Size of irrep 2 of <ab|cd> integrals:      0.353 (MW) /      2.823 (MB)
	Size of irrep 3 of <ab|cd> integrals:      0.338 (MW) /      2.700 (MB)
	Size of irrep 4 of <ab|cd> integrals:      0.254 (MW) /      2.032 (MB)
	Size of irrep 5 of <ab|cd> integrals:      0.453 (MW) /      3.623 (MB)
	Size of irrep 6 of <ab|cd> integrals:      0.338 (MW) /      2.700 (MB)
	Size of irrep 7 of <ab|cd> integrals:      0.353 (MW) /      2.823 (MB)
	Total:                                     2.732 (MW) /     21.859 (MB)

	Size of irrep 0 of <Ab|Cd> integrals:      1.732 (MW) /     13.855 (MB)
	Size of irrep 1 of <Ab|Cd> integrals:      0.982 (MW) /      7.857 (MB)
	Size of irrep 2 of <Ab|Cd> integrals:      1.339 (MW) /     10.709 (MB)
	Size of irrep 3 of <Ab|Cd> integrals:      1.309 (MW) /     10.470 (MB)
	Size of irrep 4 of <Ab|Cd> integrals:      0.980 (MW) /      7.841 (MB)
	Size of irrep 5 of <Ab|Cd> integrals:      1.729 (MW) /     13.834 (MB)
	Size of irrep 6 of <Ab|Cd> integrals:      1.311 (MW) /     10.488 (MB)
	Size of irrep 7 of <Ab|Cd> integrals:      1.339 (MW) /     10.709 (MB)
	Total:                                    10.720 (MW) /     85.763 (MB)

	Size of irrep 0 of <IA|BC> integrals:      0.099 (MW) /      0.793 (MB)
	Size of irrep 1 of <IA|BC> integrals:      0.039 (MW) /      0.312 (MB)
	Size of irrep 2 of <IA|BC> integrals:      0.068 (MW) /      0.540 (MB)
	Size of irrep 3 of <IA|BC> integrals:      0.068 (MW) /      0.540 (MB)
	Size of irrep 4 of <IA|BC> integrals:      0.041 (MW) /      0.327 (MB)
	Size of irrep 5 of <IA|BC> integrals:      0.103 (MW) /      0.822 (MB)
	Size of irrep 6 of <IA|BC> integrals:      0.065 (MW) /      0.523 (MB)
	Size of irrep 7 of <IA|BC> integrals:      0.065 (MW) /      0.523 (MB)
	Total:                                     0.548 (MW) /      4.381 (MB)

	Size of irrep 0 of <ia|bc> integrals:      0.066 (MW) /      0.528 (MB)
	Size of irrep 1 of <ia|bc> integrals:      0.024 (MW) /      0.194 (MB)
	Size of irrep 2 of <ia|bc> integrals:      0.036 (MW) /      0.285 (MB)
	Size of irrep 3 of <ia|bc> integrals:      0.049 (MW) /      0.390 (MB)
	Size of irrep 4 of <ia|bc> integrals:      0.024 (MW) /      0.194 (MB)
	Size of irrep 5 of <ia|bc> integrals:      0.067 (MW) /      0.538 (MB)
	Size of irrep 6 of <ia|bc> integrals:      0.049 (MW) /      0.390 (MB)
	Size of irrep 7 of <ia|bc> integrals:      0.036 (MW) /      0.285 (MB)
	Total:                                     0.351 (MW) /      2.805 (MB)

	Size of irrep 0 of <Ia|Bc> integrals:      0.105 (MW) /      0.842 (MB)
	Size of irrep 1 of <Ia|Bc> integrals:      0.041 (MW) /      0.325 (MB)
	Size of irrep 2 of <Ia|Bc> integrals:      0.071 (MW) /      0.565 (MB)
	Size of irrep 3 of <Ia|Bc> integrals:      0.069 (MW) /      0.549 (MB)
	Size of irrep 4 of <Ia|Bc> integrals:      0.042 (MW) /      0.333 (MB)
	Size of irrep 5 of <Ia|Bc> integrals:      0.107 (MW) /      0.852 (MB)
	Size of irrep 6 of <Ia|Bc> integrals:      0.068 (MW) /      0.540 (MB)
	Size of irrep 7 of <Ia|Bc> integrals:      0.071 (MW) /      0.565 (MB)
	Total:                                     0.571 (MW) /      4.571 (MB)

	Size of irrep 0 of <iA|bC> integrals:      0.063 (MW) /      0.505 (MB)
	Size of irrep 1 of <iA|bC> integrals:      0.023 (MW) /      0.182 (MB)
	Size of irrep 2 of <iA|bC> integrals:      0.034 (MW) /      0.268 (MB)
	Size of irrep 3 of <iA|bC> integrals:      0.048 (MW) /      0.384 (MB)
	Size of irrep 4 of <iA|bC> integrals:      0.024 (MW) /      0.190 (MB)
	Size of irrep 5 of <iA|bC> integrals:      0.064 (MW) /      0.515 (MB)
	Size of irrep 6 of <iA|bC> integrals:      0.047 (MW) /      0.376 (MB)
	Size of irrep 7 of <iA|bC> integrals:      0.034 (MW) /      0.268 (MB)
	Total:                                     0.336 (MW) /      2.690 (MB)

	Size of irrep 0 of tIjAb amplitudes:       0.005 (MW) /      0.042 (MB)
	Size of irrep 1 of tIjAb amplitudes:       0.001 (MW) /      0.008 (MB)
	Size of irrep 2 of tIjAb amplitudes:       0.001 (MW) /      0.009 (MB)
	Size of irrep 3 of tIjAb amplitudes:       0.002 (MW) /      0.018 (MB)
	Size of irrep 4 of tIjAb amplitudes:       0.000 (MW) /      0.000 (MB)
	Size of irrep 5 of tIjAb amplitudes:       0.004 (MW) /      0.032 (MB)
	Size of irrep 6 of tIjAb amplitudes:       0.003 (MW) /      0.027 (MB)
	Size of irrep 7 of tIjAb amplitudes:       0.001 (MW) /      0.009 (MB)
	Total:                                     0.018 (MW) /      0.146 (MB)

	Nuclear Rep. energy          =     47.85821480325067
	SCF energy                   =   -577.76026258362344
	One-electron energy          =    -19.10928277305591
	Two-electron (AA) energy     =      2.51883016505200
	Two-electron (BB) energy     =      0.73658997552682
	Two-electron (AB) energy     =      4.53748066813346
	Two-electron energy          =      7.79290080871229
	Reference energy             =   -577.76026258362299

*** tstop() called on cqc05 at Thu Aug 20 19:57:54 2020
Module time:
	user time   =       1.24 seconds =       0.02 minutes
	system time =       0.70 seconds =       0.01 minutes
	total time  =          2 seconds =       0.03 minutes
Total time:
	user time   =       4.61 seconds =       0.08 minutes
	system time =       0.82 seconds =       0.01 minutes
	total time  =          5 seconds =       0.08 minutes

*** tstart() called on cqc05
*** at Thu Aug 20 19:57:54 2020

            **************************
            *                        *
            *        CCENERGY        *
            *                        *
            **************************

    Nuclear Rep. energy (wfn)     =   47.858214803250668
    SCF energy          (wfn)     = -577.760262583623444
    Reference energy    (file100) = -577.760262583622989

    Input parameters:
    -----------------
    Wave function   =     CCSD
    Reference wfn   =     UHF
    Brueckner       =     No
    Memory (Mbytes) =     250000.0
    Maxiter         =     50
    R_Convergence   =     1.0e-07
    E_Convergence   =     1.0e-06
    Restart         =     Yes
    DIIS            =     Yes
    AO Basis        =     NONE
    ABCD            =     NEW
    Cache Level     =     2
    Cache Type      =     LRU
    Print Level     =     1
    Num. of threads =     4
    # Amps to Print =     10
    Print MP2 Amps? =     No
    Analyze T2 Amps =     No
    Print Pair Ener =     No
    Local CC        =     No
    SCS-MP2         =     False
    SCSN-MP2        =     False
    SCS-CCSD        =     False

MP2 correlation energy -0.1790907238806757
                Solving CC Amplitude Equations
                ------------------------------
  Iter             Energy              RMS        T1Diag      D1Diag    New D1Diag    D2Diag
  ----     ---------------------    ---------   ----------  ----------  ----------   --------
     0        -0.179090723880676    0.000e+00    0.000000    0.000000    0.000000    0.000000
     1        -0.192923532500468    8.833e-02    0.021626    0.000000    0.000000    0.000000
     2        -0.201853694639703    3.423e-02    0.027791    0.000000    0.000000    0.000000
     3        -0.203810831999334    1.589e-02    0.033575    0.000000    0.000000    0.000000
     4        -0.203945125584411    5.201e-03    0.035399    0.000000    0.000000    0.000000
     5        -0.203949242428883    1.825e-03    0.035850    0.000000    0.000000    0.000000
     6        -0.203940136512751    6.555e-04    0.035955    0.000000    0.000000    0.000000
     7        -0.203947331008202    2.265e-04    0.035977    0.000000    0.000000    0.000000
     8        -0.203947168262424    6.867e-05    0.035983    0.000000    0.000000    0.000000
     9        -0.203946439125608    2.428e-05    0.035984    0.000000    0.000000    0.000000
    10        -0.203946461622688    9.295e-06    0.035985    0.000000    0.000000    0.000000
    11        -0.203946428608564    2.915e-06    0.035985    0.000000    0.000000    0.000000
    12        -0.203946511267440    9.321e-07    0.035985    0.000000    0.000000    0.000000
    13        -0.203946513637058    4.082e-07    0.035985    0.000000    0.000000    0.000000
    14        -0.203946516841975    1.704e-07    0.035985    0.000000    0.000000    0.000000
    15        -0.203946516440030    7.069e-08    0.035985    0.000000    0.000000    0.000000
    15        -0.203946516440030    7.069e-08    0.035985    0.000000    0.000000    0.000000

    Iterations converged.

      * MP2 total energy                      = -577.939353307503666
      * CCSD total energy                     = -577.964209100063044
*** Psi4 exiting successfully. Buy a developer a beer!
