                               Psi4 1.4a3.dev88

  ==> Input File <==

--------------------------------------------------------------------------
# Any line starting with the # character is a comment line
memory 250000 mb
molecule molecule{
1 2
O          0.0000000000        0.0000000000       -0.0647184239
H          0.0000000000        0.8152105035        0.5136495982
H          0.0000000000       -0.8152105035        0.5136495982
}

set {
  reference uhf
  basis aug-cc-pV(t+d)Z
  scf_type OUT_OF_CORE
  freeze_core true
}

energy('ccsd(t)')
--------------------------------------------------------------------------

    Molecular point group: c2v

    Geometry (in Angstrom), charge = 1, multiplicity = 2:

       Center              X                  Y                   Z               Mass
    ------------   -----------------  -----------------  -----------------  -----------------
         O            0.000000000000     0.000000000000    -0.064727983907    15.994914619570
         H           -0.000000000000     0.815210503500     0.513640038193     1.007825032230
         H            0.000000000000    -0.815210503500     0.513640038193     1.007825032230

  Charge       = 1
  Multiplicity = 2
  Basis Set: AUG-CC-PV(T+D)Z
    Blend: AUG-CC-PV(T+D)Z

    Orbital Energies [Eh]
    ---------------------

    Alpha Occupied:

       1A1   -21.124477     2A1    -1.882449     1B2    -1.194531
       1B1    -1.120663     3A1    -1.073417

    Alpha Virtual:

       4A1    -0.184996     2B2    -0.118258     2B1    -0.064878
       5A1    -0.062030     6A1    -0.044083     3B2    -0.028504
       4B2     0.010553     7A1     0.017691     1A2     0.035082
       3B1     0.066080     8A1     0.069792     5B2     0.162899
       9A1     0.174217     6B2     0.192201     7B2     0.323991
      10A1     0.342007    11A1     0.403839     4B1     0.413663
       2A2     0.414461    12A1     0.515987     5B1     0.539171
      13A1     0.578559     6B1     0.588108     8B2     0.595493
       3A2     0.622580     9B2     0.661212    14A1     0.665232
      15A1     0.724342     7B1     0.738527    10B2     0.740236
      11B2     0.828528    16A1     0.860294     4A2     0.869889
      12B2     0.963071     5A2     1.156729     8B1     1.214428
      17A1     1.243953    13B2     1.411623    18A1     1.424370
      14B2     1.576852    19A1     1.669523     9B1     1.804990
       6A2     1.876684    20A1     1.943455    21A1     1.955632
      10B1     1.996102    15B2     2.047223    22A1     2.084243
      11B1     2.287774    23A1     2.307898    16B2     2.313641
       7A2     2.434433    17B2     2.487369    18B2     3.163190
      24A1     3.303258    12B1     3.532851     8A2     3.574856
      19B2     3.773580    25A1     3.775337    13B1     3.897327
      14B1     3.965844     9A2     3.970335    20B2     4.047972
      26A1     4.076485    27A1     4.199965    21B2     4.273503
      22B2     4.607432    10A2     4.627411    28A1     4.719890
      23B2     4.832725    15B1     4.895140    29A1     5.221284
      30A1     5.596360    24B2     6.042178    16B1     6.181387
      31A1     6.269170    17B1     6.575759    18B1     6.662800
      11A2     6.691778    32A1     6.737892    12A2     6.809633
      25B2     6.831544    33A1     6.962435    26B2     7.302911
      34A1     7.394285    27B2     8.076917    35A1    14.143677

    Beta Occupied:

       1A1   -21.080697     2A1    -1.721251     1B2    -1.157435
       3A1    -1.023145

    Beta Virtual:

       1B1    -0.315928     4A1    -0.176969     2B2    -0.114914
       5A1    -0.059699     6A1    -0.039371     2B1    -0.032202
       3B2    -0.025953     4B2     0.010363     7A1     0.018178
       1A2     0.037951     8A1     0.074943     3B1     0.078869
       5B2     0.162831     9A1     0.182694     6B2     0.197693
       7B2     0.322151    10A1     0.352256    11A1     0.415383
       2A2     0.431232     4B1     0.432651    12A1     0.516389
       5B1     0.563709    13A1     0.588282     8B2     0.598611
       3A2     0.624549     6B1     0.649461     9B2     0.661487
      14A1     0.669274    15A1     0.732436    10B2     0.745224
       7B1     0.770796    11B2     0.828346    16A1     0.862612
       4A2     0.873546    12B2     0.965970     5A2     1.171725
       8B1     1.234845    17A1     1.244303    13B2     1.410762
      18A1     1.460008    14B2     1.585992    19A1     1.698148
       9B1     1.859641     6A2     1.920038    20A1     1.946465
      21A1     2.007304    10B1     2.011511    15B2     2.056642
      22A1     2.107016    23A1     2.320632    11B1     2.325104
      16B2     2.330264     7A2     2.470358    17B2     2.487763
      18B2     3.164069    24A1     3.310865     8A2     3.575720
      12B1     3.641371    19B2     3.773365    25A1     3.777208
      13B1     3.901791    14B1     3.966940     9A2     3.969188
      20B2     4.047541    26A1     4.073530    27A1     4.210709
      21B2     4.280155    22B2     4.611300    10A2     4.643213
      28A1     4.755774    23B2     4.837287    15B1     4.947504
      29A1     5.225182    30A1     5.615861    24B2     6.090679
      16B1     6.227419    31A1     6.320041    17B1     6.628506
      11A2     6.733672    18B1     6.756450    32A1     6.813592
      25B2     6.848218    12A2     6.898807    33A1     6.983837
      26B2     7.315466    34A1     7.424226    27B2     8.093700
      35A1    14.180470

    Final Occupation by Irrep:
             A1    A2    B1    B2
    DOCC [     3,    0,    0,    1 ]
    SOCC [     0,    0,    1,    0 ]

  @UHF Final Energy:   -75.65854290737533

   => Energetics <=

    Nuclear Repulsion Energy =              8.7953071754058403
    One-Electron Energy =                -117.5296361342369948
    Two-Electron Energy =                  33.0757860514558288
    Total Energy =                        -75.6585429073753346

  UHF NO Occupations:
  HONO-2 :    1 B2 1.9989877
  HONO-1 :    3 A1 1.9975861
  HONO-0 :    1 B1 1.0000000
  LUNO+0 :    4 A1 0.0024139
  LUNO+1 :    2 B2 0.0010123
  LUNO+2 :    5 A1 0.0005316
  LUNO+3 :    6 A1 0.0000012

Computation Completed

Properties will be evaluated at   0.000000,   0.000000,   0.000000 [a0]

Properties computed using the SCF density matrix

  Nuclear Dipole Moment: [e a0]
     X:     0.0000      Y:     0.0000      Z:     0.9627

  Electronic Dipole Moment: [e a0]
     X:     0.0000      Y:     0.0000      Z:     0.0044

  Dipole Moment: [e a0]
     X:     0.0000      Y:     0.0000      Z:     0.9671     Total:     0.9671

  Dipole Moment: [D]
     X:     0.0000      Y:     0.0000      Z:     2.4581     Total:     2.4581

*** tstop() called on n412-040.vsc4.prov at Tue Jan 26 18:15:01 2021
Module time:
	user time   =      28.12 seconds =       0.47 minutes
	system time =       1.11 seconds =       0.02 minutes
	total time  =          4 seconds =       0.07 minutes
Total time:
	user time   =      28.12 seconds =       0.47 minutes
	system time =       1.11 seconds =       0.02 minutes
	total time  =          4 seconds =       0.07 minutes

*** tstart() called on n412-040.vsc4.prov
*** at Tue Jan 26 18:15:01 2021

	Wfn Parameters:
	--------------------
	Wavefunction         = CCSD_T
	Number of irreps     = 4
	Number of MOs        = 92
	Number of active MOs = 91
	AO-Basis             = NONE
	Semicanonical        = false
	Reference            = UHF
	Print Level          = 1

	IRREP	# MOs	# FZDC	# DOCC	# SOCC	# VIRT	# FZVR
	-----	-----	------	------	------	------	------
	 A1	   35	    1	    2	    0	    32	    0
	 A2	   12	    0	    0	    0	    12	    0
	 B1	   18	    0	    0	    1	    17	    0
	 B2	   27	    0	    1	    0	    26	    0
	Transforming integrals...
	IWL integrals will be deleted.
	(OO|OO)...
	Presorting SO-basis two-electron integrals.
	Sorting File: SO Ints (nn|nn) nbuckets = 1
	Constructing frozen core operators
	Starting AA/AB first half-transformation.
	Sorting AA/AB half-transformed integrals.
	Starting BB first half-transformation.
	Sorting BB half-transformed integrals.
	First half integral transformation complete.
	Starting AA second half-transformation.
	Starting AB second half-transformation.
	Starting BB second half-transformation.
	Two-electron integral transformation complete.
	(OO|OV)...
	Starting AA second half-transformation.
	Starting AB second half-transformation.
	Starting BB second half-transformation.
	Two-electron integral transformation complete.
	(OO|VV)...
	Starting AA second half-transformation.
	Starting AB second half-transformation.
	Starting BB second half-transformation.
	Two-electron integral transformation complete.
	(OV|OO)...
	Starting AA/AB first half-transformation.
	Sorting AA/AB half-transformed integrals.
	Starting BB first half-transformation.
	Sorting BB half-transformed integrals.
	First half integral transformation complete.
	Starting AA second half-transformation.
	Starting AB second half-transformation.
	Starting BB second half-transformation.
	Two-electron integral transformation complete.
	(OV|OV)...
	Starting AA second half-transformation.
	Starting AB second half-transformation.
	Starting BB second half-transformation.
	Two-electron integral transformation complete.
	(OV|VV)...
	Starting AA second half-transformation.
	Starting AB second half-transformation.
	Starting BB second half-transformation.
	Two-electron integral transformation complete.
	(VV|OO)...
	Starting AA/AB first half-transformation.
	Sorting AA/AB half-transformed integrals.
	Starting BB first half-transformation.
	Sorting BB half-transformed integrals.
	First half integral transformation complete.
	Starting AA second half-transformation.
	Starting AB second half-transformation.
	Starting BB second half-transformation.
	Two-electron integral transformation complete.
	(VV|OV)...
	Starting AA second half-transformation.
	Starting AB second half-transformation.
	Starting BB second half-transformation.
	Two-electron integral transformation complete.
	(VV|VV)...
	Starting AA second half-transformation.
	Starting AB second half-transformation.
	Starting BB second half-transformation.
	Two-electron integral transformation complete.
	Frozen core energy     =    -61.22324465459381

	Size of irrep 0 of <AB|CD> integrals:      1.047 (MW) /      8.372 (MB)
	Size of irrep 1 of <AB|CD> integrals:      0.682 (MW) /      5.458 (MB)
	Size of irrep 2 of <AB|CD> integrals:      0.733 (MW) /      5.862 (MB)
	Size of irrep 3 of <AB|CD> integrals:      1.073 (MW) /      8.586 (MB)
	Total:                                     3.535 (MW) /     28.279 (MB)

	Size of irrep 0 of <ab|cd> integrals:      1.082 (MW) /      8.653 (MB)
	Size of irrep 1 of <ab|cd> integrals:      0.726 (MW) /      5.807 (MB)
	Size of irrep 2 of <ab|cd> integrals:      0.789 (MW) /      6.308 (MB)
	Size of irrep 3 of <ab|cd> integrals:      1.098 (MW) /      8.786 (MB)
	Total:                                     3.694 (MW) /     29.555 (MB)

	Size of irrep 0 of <Ab|Cd> integrals:      4.622 (MW) /     36.980 (MB)
	Size of irrep 1 of <Ab|Cd> integrals:      2.816 (MW) /     22.525 (MB)
	Size of irrep 2 of <Ab|Cd> integrals:      3.042 (MW) /     24.332 (MB)
	Size of irrep 3 of <Ab|Cd> integrals:      4.343 (MW) /     34.744 (MB)
	Total:                                    14.823 (MW) /    118.582 (MB)

	Size of irrep 0 of <IA|BC> integrals:      0.228 (MW) /      1.826 (MB)
	Size of irrep 1 of <IA|BC> integrals:      0.111 (MW) /      0.885 (MB)
	Size of irrep 2 of <IA|BC> integrals:      0.134 (MW) /      1.068 (MB)
	Size of irrep 3 of <IA|BC> integrals:      0.199 (MW) /      1.591 (MB)
	Total:                                     0.671 (MW) /      5.371 (MB)

	Size of irrep 0 of <ia|bc> integrals:      0.195 (MW) /      1.561 (MB)
	Size of irrep 1 of <ia|bc> integrals:      0.072 (MW) /      0.573 (MB)
	Size of irrep 2 of <ia|bc> integrals:      0.085 (MW) /      0.682 (MB)
	Size of irrep 3 of <ia|bc> integrals:      0.176 (MW) /      1.409 (MB)
	Total:                                     0.528 (MW) /      4.224 (MB)

	Size of irrep 0 of <Ia|Bc> integrals:      0.232 (MW) /      1.858 (MB)
	Size of irrep 1 of <Ia|Bc> integrals:      0.114 (MW) /      0.913 (MB)
	Size of irrep 2 of <Ia|Bc> integrals:      0.140 (MW) /      1.116 (MB)
	Size of irrep 3 of <Ia|Bc> integrals:      0.200 (MW) /      1.601 (MB)
	Total:                                     0.686 (MW) /      5.487 (MB)

	Size of irrep 0 of <iA|bC> integrals:      0.194 (MW) /      1.548 (MB)
	Size of irrep 1 of <iA|bC> integrals:      0.069 (MW) /      0.550 (MB)
	Size of irrep 2 of <iA|bC> integrals:      0.080 (MW) /      0.642 (MB)
	Size of irrep 3 of <iA|bC> integrals:      0.175 (MW) /      1.400 (MB)
	Total:                                     0.518 (MW) /      4.141 (MB)

	Size of irrep 0 of tIjAb amplitudes:       0.011 (MW) /      0.086 (MB)
	Size of irrep 1 of tIjAb amplitudes:       0.002 (MW) /      0.013 (MB)
	Size of irrep 2 of tIjAb amplitudes:       0.003 (MW) /      0.028 (MB)
	Size of irrep 3 of tIjAb amplitudes:       0.008 (MW) /      0.067 (MB)
	Total:                                     0.024 (MW) /      0.194 (MB)

	Nuclear Rep. energy          =      8.79530717540584
	SCF energy                   =    -75.65854290737533
	One-electron energy          =    -37.28832039128227
	Two-electron (AA) energy     =      3.75109881141426
	Two-electron (BB) energy     =      1.71709859837032
	Two-electron (AB) energy     =      8.58951755331016
	Two-electron energy          =     14.05771496309474
	Reference energy             =    -75.65854290737551

*** tstop() called on n412-040.vsc4.prov at Tue Jan 26 18:15:10 2021
Module time:
	user time   =       2.15 seconds =       0.04 minutes
	system time =       1.25 seconds =       0.02 minutes
	total time  =          9 seconds =       0.15 minutes
Total time:
	user time   =      30.27 seconds =       0.50 minutes
	system time =       2.36 seconds =       0.04 minutes
	total time  =         13 seconds =       0.22 minutes
            **************************
            *                        *
            *        CCENERGY        *
            *                        *
            **************************

    Nuclear Rep. energy (wfn)     =    8.795307175405840
    SCF energy          (wfn)     =  -75.658542907375335
    Reference energy    (file100) =  -75.658542907375505

    Input parameters:
    -----------------
    Wave function   =     CCSD_T
    Reference wfn   =     UHF
    Brueckner       =     No
    Memory (Mbytes) =     250000.0
    Maxiter         =     50
    R_Convergence   =     1.0e-07
    E_Convergence   =     1.0e-06
    Restart         =     Yes
    DIIS            =     Yes
    AO Basis        =     NONE
    ABCD            =     NEW
    Cache Level     =     2
    Cache Type      =     LRU
    Print Level     =     1
    Num. of threads =     48
    # Amps to Print =     10
    Print MP2 Amps? =     No
    Analyze T2 Amps =     No
    Print Pair Ener =     No
    Local CC        =     No
    SCS-MP2         =     False
    SCSN-MP2        =     False
    SCS-CCSD        =     False

MP2 correlation energy -0.2011377079302790
                Solving CC Amplitude Equations
                ------------------------------
  Iter             Energy              RMS        T1Diag      D1Diag    New D1Diag    D2Diag
  ----     ---------------------    ---------   ----------  ----------  ----------   --------
     0        -0.201137707930279    0.000e+00    0.000000    0.000000    0.000000    0.000000
     1        -0.211465770679193    3.308e-02    0.007548    0.000000    0.000000    0.000000
     2        -0.215955794878059    1.170e-02    0.009498    0.000000    0.000000    0.000000
     3        -0.216555554158001    4.582e-03    0.010712    0.000000    0.000000    0.000000
     4        -0.216529718789554    1.820e-03    0.010952    0.000000    0.000000    0.000000
     5        -0.216562757765919    7.024e-04    0.010993    0.000000    0.000000    0.000000
     6        -0.216570544878351    2.334e-04    0.010972    0.000000    0.000000    0.000000
     7        -0.216570658875388    7.480e-05    0.010963    0.000000    0.000000    0.000000
     8        -0.216570915334751    2.566e-05    0.010962    0.000000    0.000000    0.000000
     9        -0.216570542103439    9.485e-06    0.010962    0.000000    0.000000    0.000000
    10        -0.216570744277554    3.499e-06    0.010963    0.000000    0.000000    0.000000
    11        -0.216570748104937    1.044e-06    0.010963    0.000000    0.000000    0.000000
    12        -0.216570767842641    2.849e-07    0.010963    0.000000    0.000000    0.000000
    13        -0.216570767595240    8.406e-08    0.010963    0.000000    0.000000    0.000000

    Iterations converged.

    Largest TIA Amplitudes:
              2  44        -0.0092037029
              1   0         0.0066730407
              1   1         0.0065751691
              2  45        -0.0059677415
              3  62        -0.0055157749
              2  47        -0.0054830424
              1   4        -0.0051359837
              3  61        -0.0049289652
              0   0        -0.0043773189
              0   2        -0.0041386386

    Largest Tia Amplitudes:
              1   4        -0.0049985644
              1   1         0.0047012369
              1   0         0.0046864806
              2  74         0.0044695689
              0  15        -0.0042462649
              0  14         0.0036033536
              2  70         0.0036028811
              1   7         0.0035838046
              0   5        -0.0034837638
              0   7        -0.0033905219

    Largest TIJAB Amplitudes:
      2   1  47   9         0.0081427269
      3   2  65  47        -0.0076637706
      2   1  51  17         0.0076100236
      3   2  33   6        -0.0073717760
      3   2  62  47        -0.0066995717
      3   1  65   9         0.0066371376
      3   2  61  47        -0.0065482582
      2   1  46   7        -0.0063625572
      2   1  48   9         0.0062564993
      2   1  44   9         0.0061852485

    Largest Tijab Amplitudes:
      1   0  47  44        -0.0075962972
      2   0  44  33        -0.0072699371
      1   0  52  44        -0.0071123749
      2   1  66   9         0.0067311974
      2   1  63   6        -0.0065755609
      2   1  66   6        -0.0063869884
      2   1  62   9         0.0058828819
      2   1  67   6        -0.0058024389
      2   0  44  36        -0.0057701232
      2   1  66   1         0.0056731523

    Largest TIjAb Amplitudes:
      3   2  65  66        -0.0186724813
      1   1   9   9        -0.0174280215
      3   2  62  66        -0.0168982452
      3   2  65  63        -0.0167272203
      3   2  62  63        -0.0155339716
      2   0   6  44         0.0153435335

      * MP2 total energy                      =  -75.859680615305791
      * CCSD total energy                     =  -75.875113674970748
      * CCSD(T) total energy                     =  -75.880295800156404
*** Psi4 exiting successfully. Buy a developer a beer!
