                               Psi4 1.4a3.dev88

  ==> Input File <==

--------------------------------------------------------------------------
# Any line starting with the # character is a comment line
memory 250000 mb
molecule molecule{
0 1
S          0.0000000000        0.0000000000        1.5587775077
C          0.0000000000        0.0000000000        0.0000000000
S          0.0000000000        0.0000000000       -1.5587775077
}

set {
  reference rhf
  basis aug-cc-pV(5+d)Z
  scf_type OUT_OF_CORE
  freeze_core true
}

energy('ccsd(t)')
--------------------------------------------------------------------------

    Molecular point group: d2h

    Geometry (in Angstrom), charge = 0, multiplicity = 1:

       Center              X                  Y                   Z               Mass
    ------------   -----------------  -----------------  -----------------  -----------------
         S            0.000000000000     0.000000000000     1.558777507700    31.972071174400
         C            0.000000000000     0.000000000000     0.000000000000    12.000000000000
         S            0.000000000000     0.000000000000    -1.558777507700    31.972071174400

  Charge       = 0
  Multiplicity = 1
  Basis Set: AUG-CC-PV(5+D)Z
    Blend: AUG-CC-PV(5+D)Z

    Orbital Energies [Eh]
    ---------------------

    Doubly Occupied:

       1B1u  -91.990805     1Ag   -91.990805     2Ag   -11.401417
       2B1u   -8.994094     3Ag    -8.994072     3B1u   -6.675284
       4Ag    -6.675272     1B3g   -6.673625     1B2g   -6.673625
       1B2u   -6.673624     1B3u   -6.673624     5Ag    -1.140348
       4B1u   -1.018353     6Ag    -0.679961     5B1u   -0.582776
       2B2u   -0.524229     2B3u   -0.524229     2B3g   -0.372649
       2B2g   -0.372649

  @RHF Final Energy:  -832.98184686656623

   => Energetics <=

    Nuclear Repulsion Energy =            108.6343025723144677
    One-Electron Energy =               -1365.9694190829418403
    Two-Electron Energy =                 424.3532696440611289
    Total Energy =                       -832.9818468665662294

  Dipole Moment: [D]
     X:     0.0000      Y:     0.0000      Z:     0.0000     Total:     0.0000

      * MP2 total energy                      = -833.533400194772298
      * CCSD total energy                     = -833.533309217451347
      * CCSD(T) total energy                  = -833.573505244468834
*** Psi4 exiting successfully. Buy a developer a beer!
