                               Psi4 1.4a3.dev88

  ==> Input File <==

--------------------------------------------------------------------------
# Any line starting with the # character is a comment line
memory 250000 mb
molecule molecule{
0 1
S          0.0000000000        0.0000000000        1.5587775077
C          0.0000000000        0.0000000000        0.0000000000
S          0.0000000000        0.0000000000       -1.5587775077
}

set {
  reference rhf
  basis aug-cc-pV(6+d)Z
  scf_type OUT_OF_CORE
  freeze_core true
}

energy('ccsd(t)')
--------------------------------------------------------------------------

    Molecular point group: d2h

    Geometry (in Angstrom), charge = 0, multiplicity = 1:

       Center              X                  Y                   Z               Mass
    ------------   -----------------  -----------------  -----------------  -----------------
         S            0.000000000000     0.000000000000     1.558777507700    31.972071174400
         C            0.000000000000     0.000000000000     0.000000000000    12.000000000000
         S            0.000000000000     0.000000000000    -1.558777507700    31.972071174400

  Charge       = 0
  Multiplicity = 1
  Basis Set: AUG-CC-PV(6+D)Z
    Blend: AUG-CC-PV(6+D)Z

    Orbital Energies [Eh]
    ---------------------

    Doubly Occupied:

       1B1u  -91.990817     1Ag   -91.990816     2Ag   -11.401342
       2B1u   -8.994020     3Ag    -8.993998     3B1u   -6.675196
       4Ag    -6.675185     1B2g   -6.673602     1B3g   -6.673602
       1B3u   -6.673602     1B2u   -6.673602     5Ag    -1.140289
       4B1u   -1.018302     6Ag    -0.679960     5B1u   -0.582783
       2B2u   -0.524204     2B3u   -0.524204     2B2g   -0.372633
       2B3g   -0.372633

  @RHF Final Energy:  -832.98226849866467

   => Energetics <=

    Nuclear Repulsion Energy =            108.6343025723144677
    One-Electron Energy =               -1365.9715630956627592
    Two-Electron Energy =                 424.3549920246836678
    Total Energy =                       -832.9822684986645527

  Dipole Moment: [D]
     X:     0.0000      Y:     0.0000      Z:     0.0000     Total:     0.0000

      * MP2 total energy                      = -833.540690593708746
      * CCSD total energy                     = -833.537642529444611
      * CCSD(T) total energy                  = -833.578208604589008
*** Psi4 exiting successfully. Buy a developer a beer!
