                               Psi4 1.4a3.dev88

  ==> Input File <==

--------------------------------------------------------------------------
# Any line starting with the # character is a comment line
memory 250000 mb
molecule molecule{
0 1
Si         0.0000000000        0.0000000000       -0.5554822253
O          0.0000000000        0.0000000000        0.9750988186
}

set {
  reference rhf
  basis aug-cc-pV(Q+d)Z
  scf_type OUT_OF_CORE
  freeze_core true
}

energy('ccsd(t)')
--------------------------------------------------------------------------

    Molecular point group: c2v

    Geometry (in Angstrom), charge = 0, multiplicity = 1:

       Center              X                  Y                   Z               Mass
    ------------   -----------------  -----------------  -----------------  -----------------
         SI           0.000000000000     0.000000000000    -0.556754333521    27.976926534650
         O            0.000000000000     0.000000000000     0.973826710379    15.994914619570

  Charge       = 0
  Multiplicity = 1
  Basis Set: AUG-CC-PV(Q+D)Z
    Blend: AUG-CC-PV(Q+D)Z

    Orbital Energies [Eh]
    ---------------------

    Doubly Occupied:

       1A1   -68.823986     2A1   -20.531238     3A1    -6.171127
       1B2    -4.273062     1B1    -4.273062     4A1    -4.271229
       5A1    -1.255977     6A1    -0.608306     2B2    -0.469558
       2B1    -0.469558     7A1    -0.438050

  @RHF Final Energy:  -363.85076105448093

   => Energetics <=

    Nuclear Repulsion Energy =             38.7224497724226779
    One-Electron Energy =                -581.9761127925526125
    Two-Electron Energy =                 179.4029019656489652
    Total Energy =                       -363.8507610544809268

  Dipole Moment: [D]
     X:     0.0000      Y:     0.0000      Z:    -3.8431     Total:     3.8431

      * MP2 total energy                      = -364.218163412073352
      * CCSD total energy                     = -364.214189969361087
      * CCSD(T) total energy                  = -364.234447847618412
*** Psi4 exiting successfully. Buy a developer a beer!
