                               Psi4 1.4a3.dev88

  ==> Input File <==

--------------------------------------------------------------------------
# Any line starting with the # character is a comment line
memory 250000 mb
molecule molecule{
0 1
Si         0.0000000000        0.0000000000       -0.5554822253
O          0.0000000000        0.0000000000        0.9750988186
}

set {
  reference rhf
  basis aug-cc-pV(5+d)Z
  scf_type OUT_OF_CORE
  freeze_core true
}

energy('ccsd(t)')
--------------------------------------------------------------------------

    Molecular point group: c2v

    Geometry (in Angstrom), charge = 0, multiplicity = 1:

       Center              X                  Y                   Z               Mass
    ------------   -----------------  -----------------  -----------------  -----------------
         SI           0.000000000000     0.000000000000    -0.556754333521    27.976926534650
         O            0.000000000000     0.000000000000     0.973826710379    15.994914619570

  Charge       = 0
  Multiplicity = 1
  Basis Set: AUG-CC-PV(5+D)Z
    Blend: AUG-CC-PV(5+D)Z

    Orbital Energies [Eh]
    ---------------------

    Doubly Occupied:

       1A1   -68.825217     2A1   -20.530408     3A1    -6.171192
       1B2    -4.272939     1B1    -4.272939     4A1    -4.271663
       5A1    -1.255665     6A1    -0.608231     2B1    -0.469531
       2B2    -0.469531     7A1    -0.438068

  @RHF Final Energy:  -363.85263030071144

   => Energetics <=

    Nuclear Repulsion Energy =             38.7224497724226779
    One-Electron Energy =                -581.9793958537150047
    Two-Electron Energy =                 179.4043157805809017
    Total Energy =                       -363.8526303007114393

  Dipole Moment: [D]
     X:     0.0000      Y:     0.0000      Z:    -3.8431     Total:     3.8431

      * MP2 total energy                      = -364.229312917513141
      * CCSD total energy                     = -364.222482590696700
      * CCSD(T) total energy                  = -364.243223632887805
*** Psi4 exiting successfully. Buy a developer a beer!
