                               Psi4 1.4a3.dev88

  ==> Input File <==

--------------------------------------------------------------------------
# Any line starting with the # character is a comment line
memory 250000 mb
molecule molecule{
0 1
Si         0.0000000000        0.0000000000       -0.5554822253
O          0.0000000000        0.0000000000        0.9750988186
}

set {
  reference rhf
  basis aug-cc-pV(t+d)Z
  scf_type OUT_OF_CORE
  freeze_core true
}

energy('ccsd(t)')
--------------------------------------------------------------------------

    Molecular point group: c2v

    Geometry (in Angstrom), charge = 0, multiplicity = 1:

       Center              X                  Y                   Z               Mass
    ------------   -----------------  -----------------  -----------------  -----------------
         SI           0.000000000000     0.000000000000    -0.556754333521    27.976926534650
         O            0.000000000000     0.000000000000     0.973826710379    15.994914619570

  Charge       = 0
  Multiplicity = 1
  Basis Set: AUG-CC-PV(T+D)Z
    Blend: AUG-CC-PV(T+D)Z

    Orbital Energies [Eh]
    ---------------------

    Doubly Occupied:

       1A1   -68.826697     2A1   -20.534500     3A1    -6.172938
       1B1    -4.274456     1B2    -4.274456     4A1    -4.273371
       5A1    -1.257133     6A1    -0.608737     2B1    -0.469557
       2B2    -0.469557     7A1    -0.438072

  @RHF Final Energy:  -363.84339040798056

   => Energetics <=

    Nuclear Repulsion Energy =             38.7224497724226779
    One-Electron Energy =                -581.9327329422557114
    Two-Electron Energy =                 179.3668927618524549
    Total Energy =                       -363.8433904079805643

  Dipole Moment: [D]
     X:     0.0000      Y:     0.0000      Z:    -3.8383     Total:     3.8383

      * MP2 total energy                      = -364.189342575799969
      * CCSD total energy                     = -364.189021046664038
      * CCSD(T) total energy                  = -364.208016742610312
*** Psi4 exiting successfully. Buy a developer a beer!
