                               Psi4 1.4a3.dev88

  ==> Input File <==

--------------------------------------------------------------------------
# Any line starting with the # character is a comment line
memory 250000 mb
molecule molecule{
0 1
Si         0.0000000000        0.0000000000       -0.5554822253
O          0.0000000000        0.0000000000        0.9750988186
}

set {
  reference rhf
  basis aug-cc-pV(6+d)Z
  scf_type OUT_OF_CORE
  freeze_core true
}

energy('ccsd(t)')
--------------------------------------------------------------------------

    Molecular point group: c2v

    Geometry (in Angstrom), charge = 0, multiplicity = 1:

       Center              X                  Y                   Z               Mass
    ------------   -----------------  -----------------  -----------------  -----------------
         SI           0.000000000000     0.000000000000    -0.556754333521    27.976926534650
         O            0.000000000000     0.000000000000     0.973826710379    15.994914619570

  Charge       = 0
  Multiplicity = 1
  Basis Set: AUG-CC-PV(6+D)Z
    Blend: AUG-CC-PV(6+D)Z

    Orbital Energies [Eh]
    ---------------------

    Doubly Occupied:

       1A1   -68.825114     2A1   -20.530342     3A1    -6.171029
       1B2    -4.272763     1B1    -4.272763     4A1    -4.271599
       5A1    -1.255638     6A1    -0.608213     2B1    -0.469532
       2B2    -0.469532     7A1    -0.438085

  @RHF Final Energy:  -363.85300580998251

   => Energetics <=

    Nuclear Repulsion Energy =             38.7224497724226779
    One-Electron Energy =                -581.9816899975288607
    Two-Electron Energy =                 179.4062344151236914
    Total Energy =                       -363.8530058099825055

  Dipole Moment: [D]
     X:     0.0000      Y:     0.0000      Z:    -3.8432     Total:     3.8432

      * MP2 total energy                      = -364.233833556011973
      * CCSD total energy                     = -364.225419755311918
      * CCSD(T) total energy                  = -364.246326629638475
*** Psi4 exiting successfully. Buy a developer a beer!
