                               Psi4 1.4a3.dev88

  ==> Input File <==

--------------------------------------------------------------------------
# Any line starting with the # character is a comment line
memory 250000 mb
molecule molecule{
0 1
Si         0.0000000000        0.0000000000       -0.5554822253
O          0.0000000000        0.0000000000        0.9750988186
}

set {
  reference rhf
  basis aug-cc-pV(d+d)Z
  scf_type OUT_OF_CORE
  freeze_core true
}

energy('ccsd(t)')
--------------------------------------------------------------------------

    Molecular point group: c2v

    Geometry (in Angstrom), charge = 0, multiplicity = 1:

       Center              X                  Y                   Z               Mass
    ------------   -----------------  -----------------  -----------------  -----------------
         SI           0.000000000000     0.000000000000    -0.556754333521    27.976926534650
         O            0.000000000000     0.000000000000     0.973826710379    15.994914619570

  Charge       = 0
  Multiplicity = 1
  Basis Set: AUG-CC-PV(D+D)Z
    Blend: AUG-CC-PV(D+D)Z

    Orbital Energies [Eh]
    ---------------------

    Doubly Occupied:

       1A1   -68.837712     2A1   -20.545511     3A1    -6.182612
       1B2    -4.284110     1B1    -4.284110     4A1    -4.283570
       5A1    -1.263977     6A1    -0.612759     2B2    -0.470776
       2B1    -0.470776     7A1    -0.438853

  @RHF Final Energy:  -363.81132139765862

   => Energetics <=

    Nuclear Repulsion Energy =             38.7224497724226779
    One-Electron Energy =                -581.7180112370126608
    Two-Electron Energy =                 179.1842400669313520
    Total Energy =                       -363.8113213976586167

  Dipole Moment: [D]
     X:     0.0000      Y:     0.0000      Z:    -3.7925     Total:     3.7925

      * MP2 total energy                      = -364.101929543555570
      * CCSD total energy                     = -364.106285063942494
      * CCSD(T) total energy                  = -364.119926782395396
*** Psi4 exiting successfully. Buy a developer a beer!
