                               Psi4 1.2a1.dev938

  ==> Input File <==

--------------------------------------------------------------------------
# Any line starting with the # character is a comment line
memory 250000 mb
molecule molecule{
0 2
Si         0.0000000000        0.0000000000        0.0525562661
H          0.0000000000        0.0000000000       -1.4644413475
}

set {
  reference uhf
  basis aug-cc-pv(t+d)z
  scf_type OUT_OF_CORE
  freeze_core true
}

energy('ccsd')
--------------------------------------------------------------------------

    Molecular point group: c2v

    Geometry (in Angstrom), charge = 0, multiplicity = 2:

       Center              X                  Y                   Z               Mass
    ------------   -----------------  -----------------  -----------------  -----------------
          SI          0.000000000000     0.000000000000     0.052747326993    27.976926532460
           H          0.000000000000     0.000000000000    -1.464250286607     1.007825032070

  Charge       = 0
  Multiplicity = 2
  Basis Set: AUG-CC-PV(T+D)Z
    Blend: AUG-CC-PV(T+D)Z

    Orbital Energies (a.u.)
    -----------------------

    Alpha Occupied:

       1A1   -68.809600     2A1    -6.154575     1B2    -4.264610
       1B1    -4.254579     3A1    -4.252751     4A1    -0.658403
       5A1    -0.389806     2B2    -0.297108

    Alpha Virtual:

       2B1    -0.007456     6A1     0.035254     7A1     0.061063
       3B2     0.070835     3B1     0.083409     8A1     0.119042
       9A1     0.147524     4B2     0.147751     4B1     0.149217
       1A2     0.149858    10A1     0.154621    11A1     0.241812
      12A1     0.283392     5B2     0.321608     5B1     0.322077
       6B2     0.436863     2A2     0.438294    13A1     0.438859
       6B1     0.457516     7B2     0.459110    14A1     0.465563
       7B1     0.467441     8B2     0.486951     8B1     0.487486
       3A2     0.491574    15A1     0.492295    16A1     0.543085
      17A1     0.603403     9B1     0.614650     9B2     0.619686
      18A1     0.652583    19A1     0.856159     4A2     1.014845
      20A1     1.014990    10B1     1.044922    10B2     1.048867
      21A1     1.204807    11B1     1.227684    22A1     1.232966
       5A2     1.233176    11B2     1.235941    23A1     1.302529
      12B1     1.389215    12B2     1.395565    13B1     1.423009
      13B2     1.423018    24A1     1.449429     6A2     1.449743
      25A1     1.575459    14B1     1.727301    14B2     1.736363
      26A1     1.974196    15B2     2.624332    15B1     2.625649
      27A1     2.804667    28A1     3.045653    29A1     3.681704
       7A2     3.980613    30A1     3.980632    16B1     4.081879
      16B2     4.087070    31A1     4.330688    17B1     4.376934
      17B2     4.381730    32A1     4.776352     8A2     4.776411
      18B1     4.922955    33A1     4.926599    18B2     4.935238
      34A1     5.996528

    Beta Occupied:

       1A1   -68.804664     2A1    -6.148562     1B1    -4.251984
       3A1    -4.250700     1B2    -4.238634     4A1    -0.604481
       5A1    -0.366922

    Beta Virtual:

       2B1     0.002129     2B2     0.032397     6A1     0.037009
       7A1     0.062281     3B1     0.087277     3B2     0.111974
       8A1     0.123348     4B1     0.149736     9A1     0.158404
       4B2     0.161495     1A2     0.164415    10A1     0.166364
      11A1     0.250563    12A1     0.287161     5B1     0.323035
       5B2     0.334291     6B1     0.461406    13A1     0.464263
       7B1     0.469680     2A2     0.485174    14A1     0.489817
       6B2     0.491466     7B2     0.497633     3A2     0.500720
       8B1     0.501605    15A1     0.503146     8B2     0.505887
      16A1     0.554388    17A1     0.612218     9B1     0.616407
       9B2     0.635221    18A1     0.659325    19A1     0.862555
       4A2     1.019807    20A1     1.020520    10B1     1.044866
      10B2     1.054361    21A1     1.207373    11B1     1.228560
      22A1     1.254582    11B2     1.255633     5A2     1.258235
      23A1     1.311906    12B1     1.389797    12B2     1.413732
      13B1     1.454059    13B2     1.454594    24A1     1.466678
       6A2     1.468627    25A1     1.586604    14B1     1.728868
      14B2     1.755934    26A1     1.977407    15B1     2.629018
      15B2     2.660248    27A1     2.808111    28A1     3.047466
      29A1     3.687231     7A2     3.981594    30A1     3.981638
      16B1     4.081465    16B2     4.089520    31A1     4.330561
      17B1     4.376014    17B2     4.382730    32A1     4.782509
       8A2     4.782575    18B1     4.923845    33A1     4.928198
      18B2     4.942209    34A1     6.000047

    Final Occupation by Irrep:
             A1    A2    B1    B2
    DOCC [     5,    0,    1,    1 ]
    SOCC [     0,    0,    0,    1 ]

  Energy converged.

  @UHF Final Energy:  -289.44010114671386

   => Energetics <=

    Nuclear Repulsion Energy =              4.8836470498321152
    One-Electron Energy =                -410.9001178810235615
    Two-Electron Energy =                 116.5763696844775552
    PCM Polarization Energy =               0.0000000000000000
    Total Energy =                       -289.4401011467139142

    Alert: EFP and PCM quantities not currently incorporated into SCF psivars.
  UHF NO Occupations:
  HONO-2 :    4 A1 1.9997346
  HONO-1 :    5 A1 1.9883849
  HONO-0 :    2 B2 1.0000000
  LUNO+0 :    6 A1 0.0116151
  LUNO+1 :    7 A1 0.0002654
  LUNO+2 :    3 B2 0.0000039
  LUNO+3 :    2 B1 0.0000003

Properties will be evaluated at   0.000000,   0.000000,   0.000000 Bohr

Properties computed using the SCF density matrix

  Nuclear Dipole Moment: (a.u.)
     X:     0.0000      Y:     0.0000      Z:    -1.3715

  Electronic Dipole Moment: (a.u.)
     X:     0.0000      Y:     0.0000      Z:     1.2736

  Dipole Moment: (a.u.)
     X:     0.0000      Y:     0.0000      Z:    -0.0979     Total:     0.0979

  Dipole Moment: (Debye)
     X:     0.0000      Y:     0.0000      Z:    -0.2490     Total:     0.2490

*** tstop() called on cqc05 at Thu Aug 20 20:06:46 2020
Module time:
	user time   =       1.59 seconds =       0.03 minutes
	system time =       0.06 seconds =       0.00 minutes
	total time  =          1 seconds =       0.02 minutes
Total time:
	user time   =       1.59 seconds =       0.03 minutes
	system time =       0.06 seconds =       0.00 minutes
	total time  =          1 seconds =       0.02 minutes

*** tstart() called on cqc05
*** at Thu Aug 20 20:06:46 2020

	Wfn Parameters:
	--------------------
	Wavefunction         = CCSD
	Number of irreps     = 4
	Number of MOs        = 78
	Number of active MOs = 73
	AO-Basis             = NONE
	Semicanonical        = false
	Reference            = UHF
	Print Level          = 1

	IRREP	# MOs	# FZDC	# DOCC	# SOCC	# VIRT	# FZVR
	-----	-----	------	------	------	------	------
	 A1	   34	    3	    2	    0	    29	    0
	 A2	   8	    0	    0	    0	    8	    0
	 B1	   18	    1	    0	    0	    17	    0
	 B2	   18	    1	    0	    1	    16	    0
	Transforming integrals...
	IWL integrals will be deleted.
	(OO|OO)...
	Presorting SO-basis two-electron integrals.
	Sorting File: SO Ints (nn|nn) nbuckets = 1
	Transforming the one-electron integrals and constructing Fock matrices
	Starting AA/AB first half-transformation.
	Sorting AA/AB half-transformed integrals.
	Starting BB first half-transformation.
	Sorting BB half-transformed integrals.
	First half integral transformation complete.
	Starting AA second half-transformation.
	Starting AB second half-transformation.
	Starting BB second half-transformation.
	Two-electron integral transformation complete.
	(OO|OV)...
	Starting AA second half-transformation.
	Starting AB second half-transformation.
	Starting BB second half-transformation.
	Two-electron integral transformation complete.
	(OO|VV)...
	Starting AA second half-transformation.
	Starting AB second half-transformation.
	Starting BB second half-transformation.
	Two-electron integral transformation complete.
	(OV|OO)...
	Starting AA/AB first half-transformation.
	Sorting AA/AB half-transformed integrals.
	Starting BB first half-transformation.
	Sorting BB half-transformed integrals.
	First half integral transformation complete.
	Starting AA second half-transformation.
	Starting AB second half-transformation.
	Starting BB second half-transformation.
	Two-electron integral transformation complete.
	(OV|OV)...
	Starting AA second half-transformation.
	Starting AB second half-transformation.
	Starting BB second half-transformation.
	Two-electron integral transformation complete.
	(OV|VV)...
	Starting AA second half-transformation.
	Starting AB second half-transformation.
	Starting BB second half-transformation.
	Two-electron integral transformation complete.
	(VV|OO)...
	Starting AA/AB first half-transformation.
	Sorting AA/AB half-transformed integrals.
	Starting BB first half-transformation.
	Sorting BB half-transformed integrals.
	First half integral transformation complete.
	Starting AA second half-transformation.
	Starting AB second half-transformation.
	Starting BB second half-transformation.
	Two-electron integral transformation complete.
	(VV|OV)...
	Starting AA second half-transformation.
	Starting AB second half-transformation.
	Starting BB second half-transformation.
	Two-electron integral transformation complete.
	(VV|VV)...
	Starting AA second half-transformation.
	Starting AB second half-transformation.
	Starting BB second half-transformation.
	Two-electron integral transformation complete.
	Frozen core energy     =   -288.66396581817588

	Size of irrep 0 of <AB|CD> integrals:      0.476 (MW) /      3.809 (MB)
	Size of irrep 1 of <AB|CD> integrals:      0.254 (MW) /      2.032 (MB)
	Size of irrep 2 of <AB|CD> integrals:      0.386 (MW) /      3.085 (MB)
	Size of irrep 3 of <AB|CD> integrals:      0.360 (MW) /      2.880 (MB)
	Total:                                     1.476 (MW) /     11.806 (MB)

	Size of irrep 0 of <ab|cd> integrals:      0.498 (MW) /      3.987 (MB)
	Size of irrep 1 of <ab|cd> integrals:      0.271 (MW) /      2.172 (MB)
	Size of irrep 2 of <ab|cd> integrals:      0.396 (MW) /      3.165 (MB)
	Size of irrep 3 of <ab|cd> integrals:      0.396 (MW) /      3.165 (MB)
	Total:                                     1.561 (MW) /     12.489 (MB)

	Size of irrep 0 of <Ab|Cd> integrals:      2.149 (MW) /     17.193 (MB)
	Size of irrep 1 of <Ab|Cd> integrals:      1.051 (MW) /      8.405 (MB)
	Size of irrep 2 of <Ab|Cd> integrals:      1.562 (MW) /     12.500 (MB)
	Size of irrep 3 of <Ab|Cd> integrals:      1.510 (MW) /     12.084 (MB)
	Total:                                     6.273 (MW) /     50.182 (MB)

	Size of irrep 0 of <IA|BC> integrals:      0.107 (MW) /      0.858 (MB)
	Size of irrep 1 of <IA|BC> integrals:      0.033 (MW) /      0.266 (MB)
	Size of irrep 2 of <IA|BC> integrals:      0.052 (MW) /      0.417 (MB)
	Size of irrep 3 of <IA|BC> integrals:      0.073 (MW) /      0.586 (MB)
	Total:                                     0.266 (MW) /      2.127 (MB)

	Size of irrep 0 of <ia|bc> integrals:      0.086 (MW) /      0.688 (MB)
	Size of irrep 1 of <ia|bc> integrals:      0.017 (MW) /      0.133 (MB)
	Size of irrep 2 of <ia|bc> integrals:      0.043 (MW) /      0.342 (MB)
	Size of irrep 3 of <ia|bc> integrals:      0.043 (MW) /      0.342 (MB)
	Total:                                     0.188 (MW) /      1.506 (MB)

	Size of irrep 0 of <Ia|Bc> integrals:      0.110 (MW) /      0.880 (MB)
	Size of irrep 1 of <Ia|Bc> integrals:      0.034 (MW) /      0.271 (MB)
	Size of irrep 2 of <Ia|Bc> integrals:      0.052 (MW) /      0.420 (MB)
	Size of irrep 3 of <Ia|Bc> integrals:      0.077 (MW) /      0.619 (MB)
	Total:                                     0.274 (MW) /      2.190 (MB)

	Size of irrep 0 of <iA|bC> integrals:      0.085 (MW) /      0.680 (MB)
	Size of irrep 1 of <iA|bC> integrals:      0.016 (MW) /      0.131 (MB)
	Size of irrep 2 of <iA|bC> integrals:      0.043 (MW) /      0.340 (MB)
	Size of irrep 3 of <iA|bC> integrals:      0.039 (MW) /      0.315 (MB)
	Total:                                     0.183 (MW) /      1.466 (MB)

	Size of irrep 0 of tIjAb amplitudes:       0.006 (MW) /      0.047 (MB)
	Size of irrep 1 of tIjAb amplitudes:       0.000 (MW) /      0.000 (MB)
	Size of irrep 2 of tIjAb amplitudes:       0.000 (MW) /      0.000 (MB)
	Size of irrep 3 of tIjAb amplitudes:       0.002 (MW) /      0.020 (MB)
	Total:                                     0.008 (MW) /      0.067 (MB)

	Nuclear Rep. energy          =      4.88364704983212
	SCF energy                   =   -289.44010114671386
	One-electron energy          =     -9.00284467109965
	Two-electron (AA) energy     =      0.84725272311293
	Two-electron (BB) energy     =      0.26825245663292
	Two-electron (AB) energy     =      2.22755711298432
	Two-electron energy          =      3.34306229273017
	Reference energy             =   -289.44010114671323

*** tstop() called on cqc05 at Thu Aug 20 20:06:47 2020
Module time:
	user time   =       0.65 seconds =       0.01 minutes
	system time =       0.33 seconds =       0.01 minutes
	total time  =          1 seconds =       0.02 minutes
Total time:
	user time   =       2.24 seconds =       0.04 minutes
	system time =       0.39 seconds =       0.01 minutes
	total time  =          2 seconds =       0.03 minutes

*** tstart() called on cqc05
*** at Thu Aug 20 20:06:47 2020

            **************************
            *                        *
            *        CCENERGY        *
            *                        *
            **************************

    Nuclear Rep. energy (wfn)     =    4.883647049832115
    SCF energy          (wfn)     = -289.440101146713857
    Reference energy    (file100) = -289.440101146713232

    Input parameters:
    -----------------
    Wave function   =     CCSD
    Reference wfn   =     UHF
    Brueckner       =     No
    Memory (Mbytes) =     250000.0
    Maxiter         =     50
    R_Convergence   =     1.0e-07
    E_Convergence   =     1.0e-06
    Restart         =     Yes
    DIIS            =     Yes
    AO Basis        =     NONE
    ABCD            =     NEW
    Cache Level     =     2
    Cache Type      =     LRU
    Print Level     =     1
    Num. of threads =     4
    # Amps to Print =     10
    Print MP2 Amps? =     No
    Analyze T2 Amps =     No
    Print Pair Ener =     No
    Local CC        =     No
    SCS-MP2         =     False
    SCSN-MP2        =     False
    SCS-CCSD        =     False

MP2 correlation energy -0.0818880944374074
                Solving CC Amplitude Equations
                ------------------------------
  Iter             Energy              RMS        T1Diag      D1Diag    New D1Diag    D2Diag
  ----     ---------------------    ---------   ----------  ----------  ----------   --------
     0        -0.081888094437408    0.000e+00    0.000000    0.000000    0.000000    0.000000
     1        -0.097397445439620    6.239e-02    0.012384    0.000000    0.000000    0.000000
     2        -0.105208059029627    2.877e-02    0.023463    0.000000    0.000000    0.000000
     3        -0.105744889918109    8.482e-03    0.027554    0.000000    0.000000    0.000000
     4        -0.105823793506056    2.366e-03    0.028306    0.000000    0.000000    0.000000
     5        -0.105820385816824    9.078e-04    0.028465    0.000000    0.000000    0.000000
     6        -0.105814502204216    3.024e-04    0.028452    0.000000    0.000000    0.000000
     7        -0.105818891440018    9.581e-05    0.028455    0.000000    0.000000    0.000000
     8        -0.105819640363760    3.206e-05    0.028458    0.000000    0.000000    0.000000
     9        -0.105818983838576    1.062e-05    0.028458    0.000000    0.000000    0.000000
    10        -0.105818936616136    4.152e-06    0.028459    0.000000    0.000000    0.000000
    11        -0.105818943105644    1.796e-06    0.028459    0.000000    0.000000    0.000000
    12        -0.105819002339370    7.556e-07    0.028459    0.000000    0.000000    0.000000
    13        -0.105818999222454    2.670e-07    0.028459    0.000000    0.000000    0.000000
    14        -0.105818995391868    9.364e-08    0.028459    0.000000    0.000000    0.000000
    14        -0.105818995391868    9.364e-08    0.028459    0.000000    0.000000    0.000000

    Iterations converged.

    CCSD corr. energy   =   -0.105818995391868
    PPL corr. energy    =    0.037092817758325
    OS PPL corr. energy =    0.034496856649344
    SS PPL corr. energy =    0.002595961108981
    Largest TIA Amplitudes:
              1   3         0.0228407738
              1   7        -0.0209508836
              1   2        -0.0171725108
              0   7        -0.0155150961
              0   4        -0.0113106334
              2  55        -0.0103960479
              1   8         0.0094166872
              2  56        -0.0081624004
              0   3         0.0073624113
              1   5         0.0072561776

    Largest Tia Amplitudes:
              0   3         0.0178269875
              1   3        -0.0176854323
              1   5        -0.0159796131
              0   5         0.0148309629
              0   2        -0.0091694589
              0   6         0.0089481789
              1   1        -0.0085004045
              1   2         0.0071003058
              0   7         0.0070872730
              1  12        -0.0060365450

    Largest TIJAB Amplitudes:
      2   1  55   3        -0.0196593193
      2   1  55   5        -0.0181364301
      2   1  58   5         0.0176472527
      2   1  55   2         0.0169258516
      2   1  56   5        -0.0169221552
      2   1  56   3        -0.0164325823
      2   1  58   3         0.0163310722
      2   0  37  30        -0.0162364313
      2   1  56   2         0.0143548839
      2   1  58   2        -0.0138430550

    Largest Tijab Amplitudes:
      1   0  40  37        -0.0090201118
      1   0  57  55        -0.0082606252
      1   0  39  37        -0.0078160863
      1   0  56  55        -0.0073907986
      1   0  57  54        -0.0073334058
      1   0   6   5        -0.0070086743
      1   0  58  55        -0.0069288372
      1   0  56  54        -0.0066874481
      1   0  12   3         0.0063764419
      1   0  12  11        -0.0062491291

    Largest TIjAb Amplitudes:
      1   1  37  37        -0.0983888658
      1   1  37  38        -0.0596694744
      0   1  37  37        -0.0535937896

      * MP2 total energy                      = -289.521989241150663
      * CCSD total energy                     = -289.545920142105103
*** Psi4 exiting successfully. Buy a developer a beer!
