                               Psi4 1.2a1.dev938

  ==> Input File <==

--------------------------------------------------------------------------
# Any line starting with the # character is a comment line
memory 250000 mb
molecule molecule{
0 2
Si         0.0000000000        0.0000000000        0.0525562661
H          0.0000000000        0.0000000000       -1.4644413475
}

set {
  reference uhf
  basis aug-cc-pv(d+d)z
  scf_type OUT_OF_CORE
  freeze_core true
}

energy('ccsd')
--------------------------------------------------------------------------

    Molecular point group: c2v

    Geometry (in Angstrom), charge = 0, multiplicity = 2:

       Center              X                  Y                   Z               Mass
    ------------   -----------------  -----------------  -----------------  -----------------
          SI          0.000000000000     0.000000000000     0.052747326993    27.976926532460
           H          0.000000000000     0.000000000000    -1.464250286607     1.007825032070

  Charge       = 0
  Multiplicity = 2
  Basis Set: AUG-CC-PV(D+D)Z
    Blend: AUG-CC-PV(D+D)Z

    Orbital Energies (a.u.)
    -----------------------

    Alpha Occupied:

       1A1   -68.813228     2A1    -6.157047     1B2    -4.266308
       1B1    -4.257944     3A1    -4.255065     4A1    -0.659181
       5A1    -0.389202     2B2    -0.296050

    Alpha Virtual:

       2B1    -0.008051     6A1     0.049838     7A1     0.067867
       3B2     0.077453     3B1     0.091241     8A1     0.123906
       9A1     0.188435     4B2     0.208611     1A2     0.209406
      10A1     0.212645     4B1     0.217451    11A1     0.359166
      12A1     0.367883     5B1     0.459164     5B2     0.463623
       6B2     0.527902     6B1     0.552193    13A1     0.595225
       2A2     0.660219    14A1     0.660714    15A1     0.674323
       7B2     0.679107     7B1     0.686798    16A1     0.926674
      17A1     1.203402     8B1     1.921972     8B2     1.926256
      18A1     2.166517    19A1     3.322785     3A2     3.323413
       9B1     3.345405     9B2     3.358706    20A1     3.417733

    Beta Occupied:

       1A1   -68.808585     2A1    -6.151134     1B1    -4.255519
       3A1    -4.252906     1B2    -4.241998     4A1    -0.604750
       5A1    -0.366116

    Beta Virtual:

       2B1     0.002567     2B2     0.033060     6A1     0.052299
       7A1     0.069555     3B1     0.095803     3B2     0.121434
       8A1     0.129666     9A1     0.201047     4B1     0.218969
       4B2     0.238343     1A2     0.239539    10A1     0.241829
      11A1     0.365710    12A1     0.375455     5B1     0.461075
       5B2     0.475190     6B1     0.558960     6B2     0.594774
      13A1     0.600148    14A1     0.683483     7B1     0.688381
       2A2     0.705429    15A1     0.712215     7B2     0.719493
      16A1     0.935116    17A1     1.206925     8B1     1.921394
       8B2     1.930845    18A1     2.169714    19A1     3.328972
       3A2     3.330304     9B1     3.345962     9B2     3.365458
      20A1     3.420854

    Final Occupation by Irrep:
             A1    A2    B1    B2
    DOCC [     5,    0,    1,    1 ]
    SOCC [     0,    0,    0,    1 ]

  Energy converged.

  @UHF Final Energy:  -289.43225600471754

   => Energetics <=

    Nuclear Repulsion Energy =              4.8836470498321152
    One-Electron Energy =                -410.8567734403021632
    Two-Electron Energy =                 116.5408703857524984
    PCM Polarization Energy =               0.0000000000000000
    Total Energy =                       -289.4322560047175443

    Alert: EFP and PCM quantities not currently incorporated into SCF psivars.
  UHF NO Occupations:
  HONO-2 :    4 A1 1.9998291
  HONO-1 :    5 A1 1.9895507
  HONO-0 :    2 B2 1.0000000
  LUNO+0 :    6 A1 0.0104493
  LUNO+1 :    7 A1 0.0001709
  LUNO+2 :    3 B2 0.0000005
  LUNO+3 :    8 A1 0.0000001

Properties will be evaluated at   0.000000,   0.000000,   0.000000 Bohr

Properties computed using the SCF density matrix

  Nuclear Dipole Moment: (a.u.)
     X:     0.0000      Y:     0.0000      Z:    -1.3715

  Electronic Dipole Moment: (a.u.)
     X:     0.0000      Y:     0.0000      Z:     1.2714

  Dipole Moment: (a.u.)
     X:     0.0000      Y:     0.0000      Z:    -0.1002     Total:     0.1002

  Dipole Moment: (Debye)
     X:     0.0000      Y:     0.0000      Z:    -0.2547     Total:     0.2547

*** tstop() called on cqc05 at Thu Aug 20 19:55:47 2020
Module time:
	user time   =       0.56 seconds =       0.01 minutes
	system time =       0.01 seconds =       0.00 minutes
	total time  =          0 seconds =       0.00 minutes
Total time:
	user time   =       0.56 seconds =       0.01 minutes
	system time =       0.01 seconds =       0.00 minutes
	total time  =          0 seconds =       0.00 minutes

*** tstart() called on cqc05
*** at Thu Aug 20 19:55:47 2020

	Wfn Parameters:
	--------------------
	Wavefunction         = CCSD
	Number of irreps     = 4
	Number of MOs        = 41
	Number of active MOs = 36
	AO-Basis             = NONE
	Semicanonical        = false
	Reference            = UHF
	Print Level          = 1

	IRREP	# MOs	# FZDC	# DOCC	# SOCC	# VIRT	# FZVR
	-----	-----	------	------	------	------	------
	 A1	   20	    3	    2	    0	    15	    0
	 A2	   3	    0	    0	    0	    3	    0
	 B1	   9	    1	    0	    0	    8	    0
	 B2	   9	    1	    0	    1	    7	    0
	Transforming integrals...
	IWL integrals will be deleted.
	(OO|OO)...
	Presorting SO-basis two-electron integrals.
	Sorting File: SO Ints (nn|nn) nbuckets = 1
	Transforming the one-electron integrals and constructing Fock matrices
	Starting AA/AB first half-transformation.
	Sorting AA/AB half-transformed integrals.
	Starting BB first half-transformation.
	Sorting BB half-transformed integrals.
	First half integral transformation complete.
	Starting AA second half-transformation.
	Starting AB second half-transformation.
	Starting BB second half-transformation.
	Two-electron integral transformation complete.
	(OO|OV)...
	Starting AA second half-transformation.
	Starting AB second half-transformation.
	Starting BB second half-transformation.
	Two-electron integral transformation complete.
	(OO|VV)...
	Starting AA second half-transformation.
	Starting AB second half-transformation.
	Starting BB second half-transformation.
	Two-electron integral transformation complete.
	(OV|OO)...
	Starting AA/AB first half-transformation.
	Sorting AA/AB half-transformed integrals.
	Starting BB first half-transformation.
	Sorting BB half-transformed integrals.
	First half integral transformation complete.
	Starting AA second half-transformation.
	Starting AB second half-transformation.
	Starting BB second half-transformation.
	Two-electron integral transformation complete.
	(OV|OV)...
	Starting AA second half-transformation.
	Starting AB second half-transformation.
	Starting BB second half-transformation.
	Two-electron integral transformation complete.
	(OV|VV)...
	Starting AA second half-transformation.
	Starting AB second half-transformation.
	Starting BB second half-transformation.
	Two-electron integral transformation complete.
	(VV|OO)...
	Starting AA/AB first half-transformation.
	Sorting AA/AB half-transformed integrals.
	Starting BB first half-transformation.
	Sorting BB half-transformed integrals.
	First half integral transformation complete.
	Starting AA second half-transformation.
	Starting AB second half-transformation.
	Starting BB second half-transformation.
	Two-electron integral transformation complete.
	(VV|OV)...
	Starting AA second half-transformation.
	Starting AB second half-transformation.
	Starting BB second half-transformation.
	Two-electron integral transformation complete.
	(VV|VV)...
	Starting AA second half-transformation.
	Starting AB second half-transformation.
	Starting BB second half-transformation.
	Two-electron integral transformation complete.
	Frozen core energy     =   -288.65959597746092

	Size of irrep 0 of <AB|CD> integrals:      0.025 (MW) /      0.197 (MB)
	Size of irrep 1 of <AB|CD> integrals:      0.010 (MW) /      0.082 (MB)
	Size of irrep 2 of <AB|CD> integrals:      0.020 (MW) /      0.159 (MB)
	Size of irrep 3 of <AB|CD> integrals:      0.017 (MW) /      0.133 (MB)
	Total:                                     0.071 (MW) /      0.571 (MB)

	Size of irrep 0 of <ab|cd> integrals:      0.027 (MW) /      0.215 (MB)
	Size of irrep 1 of <ab|cd> integrals:      0.012 (MW) /      0.095 (MB)
	Size of irrep 2 of <ab|cd> integrals:      0.021 (MW) /      0.166 (MB)
	Size of irrep 3 of <ab|cd> integrals:      0.021 (MW) /      0.166 (MB)
	Total:                                     0.080 (MW) /      0.642 (MB)

	Size of irrep 0 of <Ab|Cd> integrals:      0.125 (MW) /      1.003 (MB)
	Size of irrep 1 of <Ab|Cd> integrals:      0.044 (MW) /      0.353 (MB)
	Size of irrep 2 of <Ab|Cd> integrals:      0.081 (MW) /      0.650 (MB)
	Size of irrep 3 of <Ab|Cd> integrals:      0.075 (MW) /      0.596 (MB)
	Total:                                     0.325 (MW) /      2.601 (MB)

	Size of irrep 0 of <IA|BC> integrals:      0.013 (MW) /      0.103 (MB)
	Size of irrep 1 of <IA|BC> integrals:      0.003 (MW) /      0.023 (MB)
	Size of irrep 2 of <IA|BC> integrals:      0.005 (MW) /      0.043 (MB)
	Size of irrep 3 of <IA|BC> integrals:      0.007 (MW) /      0.060 (MB)
	Total:                                     0.029 (MW) /      0.228 (MB)

	Size of irrep 0 of <ia|bc> integrals:      0.011 (MW) /      0.087 (MB)
	Size of irrep 1 of <ia|bc> integrals:      0.001 (MW) /      0.010 (MB)
	Size of irrep 2 of <ia|bc> integrals:      0.005 (MW) /      0.037 (MB)
	Size of irrep 3 of <ia|bc> integrals:      0.005 (MW) /      0.037 (MB)
	Total:                                     0.021 (MW) /      0.171 (MB)

	Size of irrep 0 of <Ia|Bc> integrals:      0.013 (MW) /      0.108 (MB)
	Size of irrep 1 of <Ia|Bc> integrals:      0.003 (MW) /      0.024 (MB)
	Size of irrep 2 of <Ia|Bc> integrals:      0.005 (MW) /      0.043 (MB)
	Size of irrep 3 of <Ia|Bc> integrals:      0.008 (MW) /      0.068 (MB)
	Total:                                     0.030 (MW) /      0.242 (MB)

	Size of irrep 0 of <iA|bC> integrals:      0.011 (MW) /      0.085 (MB)
	Size of irrep 1 of <iA|bC> integrals:      0.001 (MW) /      0.010 (MB)
	Size of irrep 2 of <iA|bC> integrals:      0.005 (MW) /      0.036 (MB)
	Size of irrep 3 of <iA|bC> integrals:      0.004 (MW) /      0.031 (MB)
	Total:                                     0.020 (MW) /      0.162 (MB)

	Size of irrep 0 of tIjAb amplitudes:       0.001 (MW) /      0.011 (MB)
	Size of irrep 1 of tIjAb amplitudes:       0.000 (MW) /      0.000 (MB)
	Size of irrep 2 of tIjAb amplitudes:       0.000 (MW) /      0.000 (MB)
	Size of irrep 3 of tIjAb amplitudes:       0.001 (MW) /      0.004 (MB)
	Total:                                     0.002 (MW) /      0.016 (MB)

	Nuclear Rep. energy          =      4.88364704983212
	SCF energy                   =   -289.43225600471754
	One-electron energy          =     -8.99731626396949
	Two-electron (AA) energy     =      0.84697183658877
	Two-electron (BB) energy     =      0.26808500342109
	Two-electron (AB) energy     =      2.22595234687140
	Two-electron energy          =      3.34100918688126
	Reference energy             =   -289.43225600471703

*** tstop() called on cqc05 at Thu Aug 20 19:55:47 2020
Module time:
	user time   =       0.04 seconds =       0.00 minutes
	system time =       0.08 seconds =       0.00 minutes
	total time  =          0 seconds =       0.00 minutes
Total time:
	user time   =       0.60 seconds =       0.01 minutes
	system time =       0.09 seconds =       0.00 minutes
	total time  =          0 seconds =       0.00 minutes

*** tstart() called on cqc05
*** at Thu Aug 20 19:55:47 2020

            **************************
            *                        *
            *        CCENERGY        *
            *                        *
            **************************

    Nuclear Rep. energy (wfn)     =    4.883647049832115
    SCF energy          (wfn)     = -289.432256004717544
    Reference energy    (file100) = -289.432256004717033

    Input parameters:
    -----------------
    Wave function   =     CCSD
    Reference wfn   =     UHF
    Brueckner       =     No
    Memory (Mbytes) =     250000.0
    Maxiter         =     50
    R_Convergence   =     1.0e-07
    E_Convergence   =     1.0e-06
    Restart         =     Yes
    DIIS            =     Yes
    AO Basis        =     NONE
    ABCD            =     NEW
    Cache Level     =     2
    Cache Type      =     LRU
    Print Level     =     1
    Num. of threads =     4
    # Amps to Print =     10
    Print MP2 Amps? =     No
    Analyze T2 Amps =     No
    Print Pair Ener =     No
    Local CC        =     No
    SCS-MP2         =     False
    SCSN-MP2        =     False
    SCS-CCSD        =     False

MP2 correlation energy -0.0680350342710947
                Solving CC Amplitude Equations
                ------------------------------
  Iter             Energy              RMS        T1Diag      D1Diag    New D1Diag    D2Diag
  ----     ---------------------    ---------   ----------  ----------  ----------   --------
     0        -0.068035034271095    0.000e+00    0.000000    0.000000    0.000000    0.000000
     1        -0.084761452683361    6.449e-02    0.011073    0.000000    0.000000    0.000000
     2        -0.092982867409097    2.943e-02    0.022060    0.000000    0.000000    0.000000
     3        -0.093505802964929    8.746e-03    0.026369    0.000000    0.000000    0.000000
     4        -0.093636605640357    2.135e-03    0.027052    0.000000    0.000000    0.000000
     5        -0.093621316257427    7.328e-04    0.027120    0.000000    0.000000    0.000000
     6        -0.093612479410551    2.718e-04    0.027108    0.000000    0.000000    0.000000
     7        -0.093618954849305    7.892e-05    0.027117    0.000000    0.000000    0.000000
     8        -0.093618889098469    2.491e-05    0.027118    0.000000    0.000000    0.000000
     9        -0.093618232318804    8.369e-06    0.027118    0.000000    0.000000    0.000000
    10        -0.093618116683502    3.057e-06    0.027118    0.000000    0.000000    0.000000
    11        -0.093618183302543    1.170e-06    0.027118    0.000000    0.000000    0.000000
    12        -0.093618204460612    4.536e-07    0.027118    0.000000    0.000000    0.000000
    13        -0.093618191013364    2.018e-07    0.027118    0.000000    0.000000    0.000000
    14        -0.093618190788517    4.931e-08    0.027118    0.000000    0.000000    0.000000
    14        -0.093618190788517    4.931e-08    0.027118    0.000000    0.000000    0.000000

    Iterations converged.

    CCSD corr. energy   =   -0.093618190788517
    PPL corr. energy    =    0.029886281553624
    OS PPL corr. energy =    0.027812292242435
    SS PPL corr. energy =    0.002073989311189
    Largest TIA Amplitudes:
              1   3         0.0213622774
              1   4        -0.0194710734
              0   4         0.0165996606
              1   8        -0.0140053329
              1   2        -0.0133858093
              2  27        -0.0109583389
              0   8         0.0106748114
              1   7         0.0082212389
              1  11         0.0051392883
              0   9        -0.0049162286

    Largest Tia Amplitudes:
              1   3        -0.0248272082
              0   3        -0.0233212850
              1   0         0.0089522705
              0   7        -0.0070866271
              0   8         0.0069855811
              0   2         0.0067272443
              0   0         0.0061835533
              1   2         0.0061687623
              0   5        -0.0059324283
              1   7        -0.0056785764

    Largest TIJAB Amplitudes:
      2   1  27   3        -0.0427208922
      2   1  30   3        -0.0229392893
      2   1  27   2         0.0195248849
      2   0  18  15         0.0179345827
      2   1  27   7        -0.0159951239
      2   1  28   3         0.0149241501
      2   1  29   7        -0.0148903663
      2   1  20  15         0.0146193359
      2   1  30   7        -0.0131872584
      1   0  20  18        -0.0130852337

    Largest Tijab Amplitudes:
      1   0  28  27         0.0114441712
      1   0  20  18         0.0108004661
      1   0  28  26         0.0104398258
      1   0   6   3        -0.0090280403
      1   0  31  27         0.0085396566
      1   0  20  19         0.0073247975
      1   0  21  18        -0.0071436873
      1   0  31  26         0.0071361723
      1   0   8   6        -0.0069679347
      1   0  31  30        -0.0068351056

    Largest TIjAb Amplitudes:
      1   1  18  18        -0.0998703135
      1   1   3   3        -0.0757230723
      1   1  18  19        -0.0608333938
      0   1  18  18         0.0560765321
      0   0  18  18         0.0553716070
      1   1  19  18        -0.0521764042
      2   1  15  18         0.0481629107
      1   0  18  18        -0.0404251681
      1   1   7   7        -0.0401256715
      2   1  27   3        -0.0400603840

    SCF energy       (wfn)                    = -289.432256004717544
    Reference energy (file100)                = -289.432256004717033

    Opposite-spin MP2 correlation energy      =   -0.059653064726548
    Same-spin MP2 correlation energy          =   -0.008381969544546
    MP2 correlation energy                    =   -0.068035034271095
      * MP2 total energy                      = -289.500291038988109

    Opposite-spin CCSD correlation energy     =   -0.084135112260918
    Same-spin CCSD correlation energy         =   -0.009483079046954
    CCSD correlation energy                   =   -0.093618190788517
      * CCSD total energy                     = -289.525874195505537

*** tstop() called on cqc05 at Thu Aug 20 19:55:48 2020
Module time:
	user time   =       0.18 seconds =       0.00 minutes

*** Psi4 exiting successfully. Buy a developer a beer!
