                               Psi4 1.2a1.dev938

  ==> Input File <==

--------------------------------------------------------------------------
# Any line starting with the # character is a comment line
memory 250000 mb
molecule molecule{
0 2
Si         0.0000000000        0.0000000000        0.0525562661
H          0.0000000000        0.0000000000       -1.4644413475
}

set {
  reference uhf
  basis aug-cc-pv(6+d)z
  scf_type OUT_OF_CORE
  freeze_core true
}

energy('ccsd')
--------------------------------------------------------------------------

    Molecular point group: c2v

    Geometry (in Angstrom), charge = 0, multiplicity = 2:

       Center              X                  Y                   Z               Mass
    ------------   -----------------  -----------------  -----------------  -----------------
          SI          0.000000000000     0.000000000000     0.052747326993    27.976926532460
           H          0.000000000000     0.000000000000    -1.464250286607     1.007825032070

  Charge       = 0
  Multiplicity = 2
  Basis Set: AUG-CC-PV(6+D)Z
    Blend: AUG-CC-PV(6+D)Z

    Orbital Energies (a.u.)
    -----------------------

    Alpha Occupied:

       1A1   -68.808508     2A1    -6.153358     1B1    -4.263978
       1B2    -4.253372     3A1    -4.251768     4A1    -0.657955
       5A1    -0.389745     2B1    -0.297425

    Alpha Virtual:

       2B2    -0.007527     6A1     0.022896     7A1     0.037194
       3B1     0.041767     3B2     0.047815     8A1     0.086030
       4B2     0.096938     4B1     0.098482     9A1     0.104370
       1A2     0.105444    10A1     0.106501    11A1     0.135071
       5B1     0.179371    12A1     0.180092     5B2     0.188833
       6B1     0.205109     6B2     0.208832    13A1     0.247445
       2A2     0.260890    14A1     0.261405     7B1     0.264830
       7B2     0.264958     8B1     0.270899     8B2     0.273117
      15A1     0.279119     3A2     0.291486    16A1     0.293524
      17A1     0.308058    18A1     0.350172     9B1     0.369592
       9B2     0.371777    19A1     0.442253     4A2     0.498773
      20A1     0.498920    10B2     0.499940    10B1     0.503638
       5A2     0.556895    21A1     0.556896    11B1     0.558086
      11B2     0.558208    12B1     0.571747    12B2     0.576961
      22A1     0.580233    23A1     0.624244     6A2     0.624946
      13B2     0.637987    13B1     0.641319    24A1     0.653798
      25A1     0.677350    14B2     0.686164    14B1     0.687845
       7A2     0.697905    26A1     0.698290    15B1     0.709848
      15B2     0.709908    27A1     0.712532     8A2     0.760384
      28A1     0.760668    16B2     0.779759    16B1     0.785367
      29A1     0.787251    30A1     0.901977    17B2     1.034148
      17B1     1.039155    31A1     1.157209     9A2     1.157359
      32A1     1.164387    18B2     1.189957    18B1     1.189966
      33A1     1.222564    19B2     1.235580    19B1     1.241808
      20B2     1.312547    20B1     1.312547    34A1     1.317443
      10A2     1.317443    35A1     1.375871    21B2     1.385855
      21B1     1.386062    36A1     1.386976    11A2     1.386977
      22B2     1.417737    22B1     1.429953    37A1     1.462343
      12A2     1.466336    38A1     1.474803    23B2     1.482601
      39A1     1.486270    13A2     1.487349    23B1     1.496258
      40A1     1.497311    24B2     1.524424    24B1     1.524952
      14A2     1.546752    41A1     1.546816    25B2     1.562673
      25B1     1.562866    26B2     1.585500    15A2     1.590902
      42A1     1.590933    26B1     1.595671    27B2     1.639302
      27B1     1.648567    43A1     1.670403    44A1     1.794238
      28B2     1.937210    28B1     1.946976    45A1     2.036501
      29B2     2.211820    29B1     2.222490    46A1     2.243112
      16A2     2.244529    47A1     2.272873    17A2     2.350067
      48A1     2.350067    49A1     2.444064    18A2     2.588851
      50A1     2.588880    30B2     2.629440    30B1     2.638686
      51A1     2.664865    31B2     2.706468    31B1     2.722435
      32B2     2.772575    32B1     2.772589    52A1     2.775147
      19A2     2.775147    33B2     2.780952    33B1     2.780952
      34B2     2.858460    34B1     2.858467    53A1     2.872957
      20A2     2.892604    54A1     2.893261    21A2     2.906244
      55A1     2.908767    35B2     2.940027    35B1     2.940046
      36B2     2.992133    36B1     2.992133    56A1     2.998779
      22A2     2.998780    57A1     3.033131    23A2     3.033131
      37B2     3.048119    37B1     3.064691    58A1     3.096810
      24A2     3.099789    38B2     3.127031    38B1     3.127188
      59A1     3.143795    60A1     3.169555    25A2     3.170357
      39B2     3.212423    39B1     3.232725    40B2     3.304515
      40B1     3.304597    61A1     3.314267    62A1     3.348109
      41B2     3.351410    41B1     3.372218    63A1     3.372552
      26A2     3.372797    64A1     3.530117    42B2     3.559413
      42B1     3.576661    65A1     3.695622    27A2     3.695836
      66A1     3.801054    43B2     3.940481    43B1     3.953135
      44B2     4.236371    44B1     4.236377    67A1     4.279830
      68A1     4.465969    28A2     4.465974    45B2     4.483919
      45B1     4.490606    46B2     4.490606    46B1     4.494911
      69A1     4.593534    70A1     4.973974    47B2     4.990084
      47B1     5.001399    29A2     5.021685    71A1     5.021685
      30A2     5.159216    72A1     5.159504    73A1     5.233312
      31A2     5.277358    74A1     5.277820    48B2     5.316071
      48B1     5.332921    49B2     5.422889    49B1     5.422898
      50B2     5.622232    50B1     5.633960    75A1     5.758661
      32A2     5.758661    51B2     5.788330    51B1     5.788337
      76A1     5.906562    77A1     6.012187    33A2     6.012187
      52B2     6.022520    52B1     6.024822    53B2     6.024837
      53B1     6.036699    78A1     6.061958    34A2     6.070098
      79A1     6.086432    35A2     6.092824    80A1     6.093075
      54B2     6.202412    54B1     6.202602    55B2     6.229999
      55B1     6.248359    81A1     6.306418    56B2     6.327289
      56B1     6.327289    36A2     6.338737    82A1     6.338753
      37A2     6.437355    83A1     6.438138    57B2     6.517000
      57B1     6.517221    58B2     6.545487    58B1     6.567280
      84A1     6.607140    38A2     6.611974    85A1     6.643386
      59B2     6.723616    59B1     6.742379    60B2     6.935959
      60B1     6.935962    86A1     7.013957    39A2     7.016920
      87A1     7.030765    88A1     7.152762    40A2     7.166578
      89A1     7.167355    61B2     7.217294    61B1     7.230880
      41A2     7.537098    90A1     7.537098    91A1     8.013744
      62B2     8.137878    62B1     8.137878    63B2     8.213734
      63B1     8.228363    92A1     8.395412    42A2     8.998962
      93A1     8.998974    94A1     9.244701    64B2     9.388297
      64B1     9.397454    65B2     9.881896    65B1     9.881896
      43A2     9.927989    95A1     9.928036    96A1    10.011896
      44A2    10.788021    97A1    10.788023    66B2    10.826505
      66B1    10.832839    98A1    11.130394    67B2    11.293322
      67B1    11.302022    99A1    12.018427    68B2    13.851360
      68B1    13.855471   100A1    14.839897    69B2    17.565446
      69B1    17.565446   101A1    17.669656    45A2    17.669656
      70B2    17.775674    70B1    17.775674   102A1    17.822139
      46A2    17.822178   103A1    17.965924    71B2    18.055142
      71B1    18.059435    47A2    18.913597   104A1    18.913626
      72B2    19.275582    72B1    19.280991   105A1    19.625196
      73B2    20.265310    73B1    20.269107    48A2    20.373250
     106A1    20.373250    74B2    20.600623    74B1    20.600623
     107A1    20.987195    49A2    20.987198   108A1    21.206285
      75B2    21.571620    75B1    21.575175   109A1    21.752427
      50A2    23.051357   110A1    23.051360   111A1    23.676450
      76B2    24.000919    76B1    24.000919    77B2    24.013790
      77B1    24.016848   112A1    24.466000    51A2    24.640734
     113A1    24.640746    78B2    24.694255    78B1    24.696594
     114A1    25.926885    79B2    35.114528    79B1    35.116096
     115A1    35.939973   116A1   182.661134

    Beta Occupied:

       1A1   -68.803219     2A1    -6.147334     1B2    -4.250732
       3A1    -4.249680     1B1    -4.237396     4A1    -0.604002
       5A1    -0.366793

    Beta Virtual:

       2B2     0.001569     6A1     0.023962     2B1     0.026365
       7A1     0.037541     3B2     0.050430     3B1     0.070273
       8A1     0.088336     4B2     0.096999     4B1     0.102655
       9A1     0.107674     1A2     0.110838    10A1     0.112034
      11A1     0.138880    12A1     0.183136     5B2     0.191409
       5B1     0.203501     6B2     0.210346     6B1     0.225512
      13A1     0.252002     2A2     0.263006    14A1     0.263359
       7B2     0.267997     7B1     0.268692     8B2     0.272991
       8B1     0.286236    15A1     0.287214    16A1     0.310071
       3A2     0.324564    17A1     0.329628    18A1     0.352188
       9B2     0.373396     9B1     0.388801    19A1     0.446736
       4A2     0.500422    10B2     0.500533    20A1     0.500836
      10B1     0.508301     5A2     0.561166    21A1     0.561169
      11B2     0.561222    11B1     0.561403    12B2     0.580347
      22A1     0.585056    12B1     0.602911    23A1     0.626251
       6A2     0.627933    13B2     0.638149    24A1     0.656174
      13B1     0.656680    25A1     0.678399    14B2     0.686213
      14B1     0.707993    26A1     0.713954    15B2     0.726492
      15B1     0.727127     7A2     0.732332    27A1     0.738134
      28A1     0.768445     8A2     0.769600    16B2     0.782041
      29A1     0.796218    16B1     0.801325    30A1     0.906888
      17B2     1.035101    17B1     1.047941    31A1     1.159390
       9A2     1.159621    32A1     1.171684    18B2     1.192660
      18B1     1.192706    33A1     1.228165    19B2     1.236644
      19B1     1.252629    20B2     1.319474    20B1     1.319474
      34A1     1.322814    10A2     1.322815    35A1     1.378405
      21B2     1.392275    21B1     1.393225    36A1     1.399834
      11A2     1.399841    22B2     1.419642    22B1     1.439881
      37A1     1.462186    12A2     1.469628    38A1     1.475945
      23B2     1.482832    39A1     1.491790    13A2     1.493523
      23B1     1.501346    40A1     1.506531    24B2     1.530265
      24B1     1.531453    41A1     1.560296    14A2     1.560573
      25B2     1.577958    25B1     1.583619    26B2     1.593952
      15A2     1.607217    42A1     1.608027    26B1     1.614740
      27B2     1.642002    27B1     1.677317    43A1     1.677964
      44A1     1.794934    28B2     1.938789    28B1     1.958355
      45A1     2.039616    29B2     2.212508    29B1     2.228191
      46A1     2.245818    16A2     2.248272    47A1     2.278129
      17A2     2.352760    48A1     2.352761    49A1     2.449604
      18A2     2.590459    50A1     2.590539    30B2     2.629913
      30B1     2.642067    51A1     2.667127    31B2     2.707093
      31B1     2.733977    32B2     2.775240    32B1     2.775298
      52A1     2.783803    19A2     2.783803    33B2     2.787899
      33B1     2.787899    34B2     2.864786    34B1     2.864813
      53A1     2.873386    20A2     2.904019    54A1     2.907163
      21A2     2.919462    55A1     2.923089    35B2     2.950516
      35B1     2.950612    36B2     3.004955    36B1     3.004955
      56A1     3.007122    22A2     3.007122    57A1     3.039340
      23A2     3.039344    37B2     3.047706    37B1     3.072055
      58A1     3.098461    24A2     3.103906    38B2     3.132356
      38B1     3.132813    59A1     3.148880    60A1     3.176411
      25A2     3.178169    39B2     3.214235    39B1     3.244691
      40B2     3.320435    61A1     3.320596    40B1     3.320800
      62A1     3.352033    41B2     3.352789    41B1     3.380867
      63A1     3.382128    26A2     3.383132    64A1     3.536612
      42B2     3.559774    42B1     3.583560    65A1     3.701766
      27A2     3.702269    66A1     3.804180    43B2     3.940608
      43B1     3.958618    44B2     4.239310    44B1     4.239322
      67A1     4.281400    68A1     4.467475    28A2     4.467476
      45B2     4.484934    45B1     4.492240    46B2     4.492240
      46B1     4.506049    69A1     4.595349    70A1     4.976197
      47B2     4.990532    47B1     5.005704    29A2     5.024048
      71A1     5.024049    30A2     5.162707    72A1     5.163190
      73A1     5.234518    31A2     5.279608    74A1     5.280274
      48B2     5.317856    48B1     5.345416    49B2     5.425194
      49B1     5.425217    50B2     5.622464    50B1     5.637501
      75A1     5.769560    32A2     5.769560    51B2     5.795983
      51B1     5.796005    76A1     5.908456    52B2     6.021479
      77A1     6.022782    33A2     6.022783    52B1     6.033313
      53B2     6.033332    53B1     6.040060    78A1     6.061651
      34A2     6.073619    79A1     6.092888    35A2     6.099620
      80A1     6.099944    54B2     6.206621    54B1     6.207117
      55B2     6.231652    55B1     6.255903    81A1     6.308093
      56B2     6.338626    56B1     6.338626    36A2     6.347077
      82A1     6.347120    37A2     6.442259    83A1     6.443563
      57B2     6.522596    57B1     6.523114    58B2     6.546976
      58B1     6.574348    84A1     6.609793    38A2     6.617335
      85A1     6.649377    59B2     6.724310    59B1     6.748901
      60B2     6.941914    60B1     6.941923    86A1     7.016811
      39A2     7.022266    87A1     7.035427    88A1     7.154348
      40A2     7.170862    89A1     7.172227    61B2     7.217140
      61B1     7.234927    41A2     7.537943    90A1     7.537943
      91A1     8.015835    62B2     8.139687    62B1     8.139689
      63B2     8.214067    63B1     8.232889    92A1     8.396902
      42A2     9.000620    93A1     9.000634    94A1     9.246216
      64B2     9.388235    64B1     9.399189    65B2     9.882284
      65B1     9.882284    43A2     9.928452    95A1     9.928517
      96A1    10.013452    44A2    10.788394    97A1    10.788398
      66B2    10.826444    66B1    10.833780    98A1    11.130763
      67B2    11.293324    67B1    11.303890    99A1    12.019931
      68B2    13.850859    68B1    13.855468   100A1    14.839756
      69B2    17.565564    69B1    17.565564   101A1    17.669806
      45A2    17.669806    70B2    17.775793    70B1    17.775793
     102A1    17.822251    46A2    17.822300   103A1    17.966181
      71B2    18.054983    71B1    18.059926    47A2    18.921477
     104A1    18.921479    72B2    19.276604    72B1    19.288345
     105A1    19.627816    73B2    20.266950    73B1    20.282118
      48A2    20.373203   106A1    20.373203    74B2    20.600611
      74B1    20.600611   107A1    20.987179    49A2    20.987182
     108A1    21.206104    75B2    21.571528    75B1    21.576365
     109A1    21.752348    50A2    23.051077   110A1    23.051082
     111A1    23.676837    76B2    24.000757    76B1    24.000757
      77B2    24.013469    77B1    24.017030   112A1    24.465761
      51A2    24.640553   113A1    24.640568    78B2    24.693949
      78B1    24.696561   114A1    25.927181    79B2    35.114092
      79B1    35.115777   115A1    35.939603   116A1   182.663235

    Final Occupation by Irrep:
             A1    A2    B1    B2
    DOCC [     5,    0,    1,    1 ]
    SOCC [     0,    0,    1,    0 ]

  Energy converged.

  @UHF Final Energy:  -289.44290025335982

   => Energetics <=

    Nuclear Repulsion Energy =              4.8836470498321152
    One-Electron Energy =                -410.9178296557032581
    Two-Electron Energy =                 116.5912823525113140
    Total Energy =                       -289.4429002533598236

  UHF NO Occupations:
  HONO-2 :    4 A1 1.9997292
  HONO-1 :    5 A1 1.9882462
  HONO-0 :    2 B1 1.0000000
  LUNO+0 :    6 A1 0.0117538
  LUNO+1 :    7 A1 0.0002708
  LUNO+2 :    3 B1 0.0000043
  LUNO+3 :    2 B2 0.0000003

Properties will be evaluated at   0.000000,   0.000000,   0.000000 Bohr

Properties computed using the SCF density matrix

  Nuclear Dipole Moment: (a.u.)
     X:     0.0000      Y:     0.0000      Z:    -1.3715

  Electronic Dipole Moment: (a.u.)
     X:     0.0000      Y:     0.0000      Z:     1.2754

  Dipole Moment: (a.u.)
     X:     0.0000      Y:     0.0000      Z:    -0.0961     Total:     0.0961

  Dipole Moment: (Debye)
     X:     0.0000      Y:     0.0000      Z:    -0.2443     Total:     0.2443

*** tstop() called on cqc05 at Wed Aug 26 20:03:57 2020
Module time:
	user time   =     278.08 seconds =       4.63 minutes
	system time =      18.95 seconds =       0.32 minutes
	total time  =        384 seconds =       6.40 minutes
Total time:
	user time   =     278.08 seconds =       4.63 minutes
	system time =      18.95 seconds =       0.32 minutes
	total time  =        384 seconds =       6.40 minutes

*** tstart() called on cqc05
*** at Wed Aug 26 20:03:57 2020

	Wfn Parameters:
	--------------------
	Wavefunction         = CCSD
	Number of irreps     = 4
	Number of MOs        = 325
	Number of active MOs = 320
	AO-Basis             = NONE
	Semicanonical        = false
	Reference            = UHF
	Print Level          = 1

	IRREP	# MOs	# FZDC	# DOCC	# SOCC	# VIRT	# FZVR
	-----	-----	------	------	------	------	------
	 A1	   116	    3	    2	    0	    111	    0
	 A2	   51	    0	    0	    0	    51	    0
	 B1	   79	    1	    0	    1	    77	    0
	 B2	   79	    1	    0	    0	    78	    0
	Transforming integrals...
	IWL integrals will be deleted.
	(OO|OO)...
	Presorting SO-basis two-electron integrals.
	Sorting File: SO Ints (nn|nn) nbuckets = 1
	Transforming the one-electron integrals and constructing Fock matrices
	Starting AA/AB first half-transformation.
	Sorting AA/AB half-transformed integrals.
	Starting BB first half-transformation.
	Sorting BB half-transformed integrals.
	First half integral transformation complete.
	Starting AA second half-transformation.
	Starting AB second half-transformation.
	Starting BB second half-transformation.
	Two-electron integral transformation complete.
	(OO|OV)...
	Starting AA second half-transformation.
	Starting AB second half-transformation.
	Starting BB second half-transformation.
	Two-electron integral transformation complete.
	(OO|VV)...
	Starting AA second half-transformation.
	Starting AB second half-transformation.
	Starting BB second half-transformation.
	Two-electron integral transformation complete.
	(OV|OO)...
	Starting AA/AB first half-transformation.
	Sorting AA/AB half-transformed integrals.
	Starting BB first half-transformation.
	Sorting BB half-transformed integrals.
	First half integral transformation complete.
	Starting AA second half-transformation.
	Starting AB second half-transformation.
	Starting BB second half-transformation.
	Two-electron integral transformation complete.
	(OV|OV)...
	Starting AA second half-transformation.
	Starting AB second half-transformation.
	Starting BB second half-transformation.
	Two-electron integral transformation complete.
	(OV|VV)...
	Starting AA second half-transformation.
	Starting AB second half-transformation.
	Starting BB second half-transformation.
	Two-electron integral transformation complete.
	(VV|OO)...
	Starting AA/AB first half-transformation.
	Sorting AA/AB half-transformed integrals.
	Starting BB first half-transformation.
	Sorting BB half-transformed integrals.
	First half integral transformation complete.
	Starting AA second half-transformation.
	Starting AB second half-transformation.
	Starting BB second half-transformation.
	Two-electron integral transformation complete.
	(VV|OV)...
	Starting AA second half-transformation.
	Starting AB second half-transformation.
	Starting BB second half-transformation.
	Two-electron integral transformation complete.
	(VV|VV)...
	Starting AA second half-transformation.
	Starting AB second half-transformation.
	Starting BB second half-transformation.
	Two-electron integral transformation complete.
	Frozen core energy     =   -288.66541025354189

	Size of irrep 0 of <AB|CD> integrals:    177.129 (MW) /   1417.036 (MB)
	Size of irrep 1 of <AB|CD> integrals:    136.119 (MW) /   1088.951 (MB)
	Size of irrep 2 of <AB|CD> integrals:    156.876 (MW) /   1255.005 (MB)
	Size of irrep 3 of <AB|CD> integrals:    158.382 (MW) /   1267.058 (MB)
	Total:                                   628.506 (MW) /   5028.050 (MB)

	Size of irrep 0 of <ab|cd> integrals:    179.185 (MW) /   1433.480 (MB)
	Size of irrep 1 of <ab|cd> integrals:    137.945 (MW) /   1103.560 (MB)
	Size of irrep 2 of <ab|cd> integrals:    159.668 (MW) /   1277.348 (MB)
	Size of irrep 3 of <ab|cd> integrals:    159.668 (MW) /   1277.348 (MB)
	Total:                                   636.467 (MW) /   5091.736 (MB)

	Size of irrep 0 of <Ab|Cd> integrals:    729.648 (MW) /   5837.185 (MB)
	Size of irrep 1 of <Ab|Cd> integrals:    548.122 (MW) /   4384.974 (MB)
	Size of irrep 2 of <Ab|Cd> integrals:    633.076 (MW) /   5064.607 (MB)
	Size of irrep 3 of <Ab|Cd> integrals:    636.099 (MW) /   5088.791 (MB)
	Total:                                  2546.945 (MW) /  20375.557 (MB)

	Size of irrep 0 of <IA|BC> integrals:      8.054 (MW) /     64.429 (MB)
	Size of irrep 1 of <IA|BC> integrals:      4.200 (MW) /     33.601 (MB)
	Size of irrep 2 of <IA|BC> integrals:      6.638 (MW) /     53.106 (MB)
	Size of irrep 3 of <IA|BC> integrals:      5.210 (MW) /     41.682 (MB)
	Total:                                    24.102 (MW) /    192.817 (MB)

      * MP2 total energy                      = -289.532977143596156
      * CCSD total energy                     = -289.553286912226724
*** Psi4 exiting successfully. Buy a developer a beer!
