                               Psi4 1.2a1.dev938

  ==> Input File <==

--------------------------------------------------------------------------
# Any line starting with the # character is a comment line
memory 250000 mb
molecule molecule{
0 2
Si         0.0000000000        0.0000000000        0.0525562661
H          0.0000000000        0.0000000000       -1.4644413475
}

set {
  reference uhf
  basis aug-cc-pv(5+d)z
  scf_type OUT_OF_CORE
  freeze_core true
}

energy('ccsd')
--------------------------------------------------------------------------

    Molecular point group: c2v

    Geometry (in Angstrom), charge = 0, multiplicity = 2:

       Center              X                  Y                   Z               Mass
    ------------   -----------------  -----------------  -----------------  -----------------
          SI          0.000000000000     0.000000000000     0.052747326993    27.976926532460
           H          0.000000000000     0.000000000000    -1.464250286607     1.007825032070

  Charge       = 0
  Multiplicity = 2
  Basis Set: AUG-CC-PV(5+D)Z
    Blend: AUG-CC-PV(5+D)Z

    Orbital Energies (a.u.)
    -----------------------

    Alpha Occupied:

       1A1   -68.808567     2A1    -6.153422     1B1    -4.263972
       1B2    -4.253531     3A1    -4.251794     4A1    -0.657979
       5A1    -0.389729     2B1    -0.297409

    Alpha Virtual:

       2B2    -0.007452     6A1     0.025741     7A1     0.043680
       3B1     0.050707     3B2     0.058701     8A1     0.090987
       4B2     0.104092     4B1     0.105584     9A1     0.110517
       1A2     0.110830    10A1     0.115276    11A1     0.161273
      12A1     0.200939     5B1     0.223951     5B2     0.224759
       6B1     0.245570     6B2     0.261290    13A1     0.279038
       7B1     0.282944     2A2     0.282973     7B2     0.283225
      14A1     0.286819     8B1     0.290341     8B2     0.292145
       3A2     0.308543    15A1     0.309636    16A1     0.324619
      17A1     0.348285     9B1     0.398712     9B2     0.401272
      18A1     0.422972    19A1     0.504738    10B2     0.591579
      10B1     0.595502     4A2     0.627157    20A1     0.627239
      21A1     0.660035     5A2     0.725379    22A1     0.725391
      11B2     0.727463    11B1     0.727568    12B2     0.741998
      12B1     0.744566     6A2     0.750655    23A1     0.750906
      13B2     0.757899    13B1     0.757969    24A1     0.760386
       7A2     0.760734    25A1     0.796988    14B2     0.808367
      14B1     0.811061    15B2     0.843992    26A1     0.844299
      15B1     0.850345     8A2     0.873834    27A1     0.873984
      28A1     0.891942    16B2     0.927163    16B1     0.927495
      29A1     0.996228    30A1     1.157327    17B2     1.220675
      17B1     1.227469    18B2     1.377223    18B1     1.377225
      31A1     1.386406    32A1     1.447134     9A2     1.491618
      33A1     1.491701    19B2     1.527691    19B1     1.534712
      34A1     1.673540    10A2     1.680324    35A1     1.680531
      20B2     1.689595    20B1     1.689689    21B2     1.725210
      21B1     1.736242    36A1     1.761534    11A2     1.761738
      22B2     1.783509    37A1     1.799782    22B1     1.801669
      23B2     1.823414    23B1     1.823414    12A2     1.826612
      38A1     1.826634    13A2     1.842027    39A1     1.842062
      24B2     1.852785    24B1     1.853082    14A2     1.858316
      40A1     1.858631    25B2     1.978144    25B1     1.992647
      41A1     1.995780    15A2     2.021673    42A1     2.026347
      26B2     2.047276    26B1     2.047394    43A1     2.191019
      27B2     2.259547    27B1     2.272964    44A1     2.450066
      28B2     2.586175    28B1     2.595245    45A1     2.731927
      16A2     2.756781    46A1     2.757007    47A1     2.808991
      29B2     2.892244    29B1     2.905426    17A2     3.099028
      48A1     3.099028    49A1     3.390986    30B2     3.452183
      18A2     3.456856    50A1     3.456974    30B1     3.464282
      31B2     3.511145    31B1     3.522432    32B2     3.543632
      32B1     3.544033    33B2     3.617217    33B1     3.617227
      51A1     3.664512    19A2     3.665767    52A1     3.733060
      20A2     3.742341    53A1     3.751007    34B2     3.806536
      34B1     3.826337    54A1     3.839204    55A1     4.029005
      35B2     4.049968    35B1     4.060674    21A2     4.099913
      56A1     4.100149    36B2     4.102729    36B1     4.102746
      22A2     4.196626    57A1     4.196626    37B2     4.218936
      37B1     4.219178    38B2     4.239101    38B1     4.239102
      58A1     4.252470    23A2     4.252471    39B2     4.263938
      39B1     4.283341    59A1     4.333471    60A1     4.412028
      24A2     4.412201    61A1     4.529672    40B2     4.612375
      40B1     4.612403    62A1     4.654561    41B2     4.723362
      41B1     4.741247    63A1     5.398932    25A2     5.531494
      64A1     5.531706    65A1     5.673941    26A2     5.917056
      66A1     5.917135    42B2     6.000747    42B1     6.011524
      43B2     6.228565    43B1     6.236481    67A1     6.839778
      44B2     7.057163    44B1     7.066358    68A1     8.246810
      69A1     9.768648    27A2     9.768688    45B2     9.989813
      45B1    10.000220    70A1    10.155620    46B2    12.996049
      46B1    12.996049    71A1    13.205621    28A2    13.205621
      72A1    13.215505    47B2    13.223625    47B1    13.227806
      29A2    13.266764    73A1    13.266831    48B2    13.341495
      48B1    13.341495    74A1    13.457463    30A2    13.457473
      49B2    13.473989    49B1    13.478345    75A1    13.522791
      50B2    14.078395    50B1    14.082518    76A1    14.333344
      31A2    14.464562    77A1    14.464578    51B2    14.798343
      51B1    14.801263    78A1    15.372108    79A1    15.671063
      52B2    17.587452    52B1    17.590388    80A1    18.676743
      81A1    41.502908

    Beta Occupied:

       1A1   -68.803265     2A1    -6.147443     1B2    -4.250879
       3A1    -4.249694     1B1    -4.237476     4A1    -0.604030
       5A1    -0.366785

    Beta Virtual:

       2B2     0.001799     6A1     0.026959     2B1     0.028730
       7A1     0.044186     3B2     0.061703     3B1     0.082874
       8A1     0.093384     4B2     0.104222     4B1     0.110607
       1A2     0.117098     9A1     0.118142    10A1     0.118461
      11A1     0.166148    12A1     0.204876     5B2     0.225641
       5B1     0.233993     6B2     0.265593    13A1     0.282862
       2A2     0.285701     6B1     0.286202     7B2     0.286609
      14A1     0.289123     7B1     0.290156     8B2     0.292019
       8B1     0.306576    15A1     0.330443     3A2     0.343866
      16A1     0.347631    17A1     0.353711     9B2     0.402947
       9B1     0.419390    18A1     0.426654    19A1     0.509489
      10B2     0.592294    10B1     0.602449     4A2     0.630259
      20A1     0.630582    21A1     0.663584    11B2     0.732256
      22A1     0.733106     5A2     0.733106    11B1     0.733601
      12B2     0.741733    12B1     0.764588    23A1     0.766786
       6A2     0.768978    13B2     0.775494    13B1     0.776158
      24A1     0.781581     7A2     0.783421    25A1     0.807187
      14B2     0.810466    14B1     0.831829    15B2     0.846282
      26A1     0.846942    15B1     0.866848    27A1     0.879511
       8A2     0.879874    28A1     0.901491    16B2     0.931151
      16B1     0.959371    29A1     0.999660    30A1     1.162786
      17B2     1.221050    17B1     1.235521    18B2     1.380023
      18B1     1.380032    31A1     1.394122    32A1     1.450111
       9A2     1.493713    33A1     1.493955    19B2     1.528025
      19B1     1.542253    34A1     1.677490    35A1     1.692789
      10A2     1.693793    20B2     1.709185    20B1     1.711899
      21B2     1.730998    21B1     1.756095    36A1     1.775331
      11A2     1.776355    22B2     1.784720    37A1     1.809438
      22B1     1.815666    23B2     1.834597    23B1     1.834598
      12A2     1.835939    38A1     1.836040    13A2     1.854404
      39A1     1.854898    24B2     1.865644    24B1     1.866766
      14A2     1.872152    40A1     1.873171    25B2     1.977335
      41A1     1.996307    25B1     1.999694    15A2     2.027207
      42A1     2.036006    26B2     2.053890    26B1     2.054186
      43A1     2.193088    27B2     2.259956    27B1     2.280202
      44A1     2.453818    28B2     2.588291    28B1     2.610788
      45A1     2.733933    16A2     2.761044    46A1     2.761546
      47A1     2.810515    29B2     2.893332    29B1     2.915391
      17A2     3.101363    48A1     3.101363    49A1     3.394342
      30B2     3.452490    18A2     3.461913    50A1     3.462333
      30B1     3.470776    31B2     3.512002    31B1     3.534759
      32B2     3.558483    32B1     3.559904    33B2     3.620427
      33B1     3.620458    51A1     3.670409    19A2     3.673098
      52A1     3.736358    20A2     3.749546    53A1     3.763603
      34B2     3.808709    34B1     3.838476    54A1     3.845136
      55A1     4.031703    35B2     4.049376    35B1     4.065402
      21A2     4.105323    56A1     4.105850    36B2     4.106864
      36B1     4.106909    22A2     4.212738    57A1     4.212740
      37B2     4.228346    37B1     4.229479    38B2     4.253316
      38B1     4.253323    58A1     4.263243    23A2     4.263247
      39B2     4.265421    39B1     4.293560    59A1     4.332843
      60A1     4.417493    24A2     4.418121    61A1     4.533854
      40B2     4.617834    40B1     4.617927    62A1     4.659295
      41B2     4.724865    41B1     4.751464    63A1     5.401394
      25A2     5.535605    64A1     5.535971    65A1     5.675120
      26A2     5.917955    66A1     5.918076    42B2     6.000816
      42B1     6.014587    43B2     6.228659    43B1     6.238765
      67A1     6.840492    44B2     7.057205    44B1     7.069043
      68A1     8.248061    69A1     9.775636    27A2     9.775787
      45B2     9.990660    45B1    10.007353    70A1    10.158582
      46B2    12.996034    46B1    12.996034    71A1    13.205754
      28A2    13.205754    72A1    13.215365    47B2    13.223628
      47B1    13.230829    29A2    13.266790    73A1    13.266877
      48B2    13.341653    48B1    13.341653    74A1    13.457591
      30A2    13.457605    49B2    13.475357    49B1    13.490842
      75A1    13.522852    50B2    14.078286    50B1    14.083643
      76A1    14.332942    31A2    14.464355    77A1    14.464375
      51B2    14.798050    51B1    14.802165    78A1    15.372019
      79A1    15.672041    52B2    17.586885    52B1    17.590311
      80A1    18.676411    81A1    41.506718

    Final Occupation by Irrep:
             A1    A2    B1    B2
    DOCC [     5,    0,    1,    1 ]
    SOCC [     0,    0,    1,    0 ]

  Energy converged.

  @UHF Final Energy:  -289.44277711170537

   => Energetics <=

    Nuclear Repulsion Energy =              4.8836470498321152
    One-Electron Energy =                -410.9168716582034335
    Two-Electron Energy =                 116.5904474966659734
    PCM Polarization Energy =               0.0000000000000000
    Total Energy =                       -289.4427771117053680

    Alert: EFP and PCM quantities not currently incorporated into SCF psivars.
  UHF NO Occupations:
  HONO-2 :    4 A1 1.9997292
  HONO-1 :    5 A1 1.9882640
  HONO-0 :    2 B1 1.0000000
  LUNO+0 :    6 A1 0.0117360
  LUNO+1 :    7 A1 0.0002708
  LUNO+2 :    3 B1 0.0000042
  LUNO+3 :    2 B2 0.0000003

Properties will be evaluated at   0.000000,   0.000000,   0.000000 Bohr

Properties computed using the SCF density matrix

  Nuclear Dipole Moment: (a.u.)
     X:     0.0000      Y:     0.0000      Z:    -1.3715

  Electronic Dipole Moment: (a.u.)
     X:     0.0000      Y:     0.0000      Z:     1.2754

  Dipole Moment: (a.u.)
     X:     0.0000      Y:     0.0000      Z:    -0.0961     Total:     0.0961

  Dipole Moment: (Debye)
     X:     0.0000      Y:     0.0000      Z:    -0.2443     Total:     0.2443

*** tstop() called on cqc05 at Fri Aug 21 06:17:57 2020
Module time:
	user time   =      50.19 seconds =       0.84 minutes
	system time =       2.89 seconds =       0.05 minutes
	total time  =         53 seconds =       0.88 minutes
Total time:
	user time   =      50.19 seconds =       0.84 minutes
	system time =       2.89 seconds =       0.05 minutes
	total time  =         53 seconds =       0.88 minutes

*** tstart() called on cqc05
*** at Fri Aug 21 06:17:57 2020

	Wfn Parameters:
	--------------------
	Wavefunction         = CCSD
	Number of irreps     = 4
	Number of MOs        = 216
	Number of active MOs = 211
	AO-Basis             = NONE
	Semicanonical        = false
	Reference            = UHF
	Print Level          = 1

	IRREP	# MOs	# FZDC	# DOCC	# SOCC	# VIRT	# FZVR
	-----	-----	------	------	------	------	------
	 A1	   81	    3	    2	    0	    76	    0
	 A2	   31	    0	    0	    0	    31	    0
	 B1	   52	    1	    0	    1	    50	    0
	 B2	   52	    1	    0	    0	    51	    0
	Transforming integrals...
	IWL integrals will be deleted.
	(OO|OO)...
	Presorting SO-basis two-electron integrals.
	Sorting File: SO Ints (nn|nn) nbuckets = 1
	Transforming the one-electron integrals and constructing Fock matrices
	Starting AA/AB first half-transformation.
	Sorting AA/AB half-transformed integrals.
	Starting BB first half-transformation.
	Sorting BB half-transformed integrals.
	First half integral transformation complete.
	Starting AA second half-transformation.
	Starting AB second half-transformation.
	Starting BB second half-transformation.
	Two-electron integral transformation complete.
	(OO|OV)...
	Starting AA second half-transformation.
	Starting AB second half-transformation.
	Starting BB second half-transformation.
	Two-electron integral transformation complete.
	(OO|VV)...
	Starting AA second half-transformation.
	Starting AB second half-transformation.
	Starting BB second half-transformation.
	Two-electron integral transformation complete.
	(OV|OO)...
	Starting AA/AB first half-transformation.
	Sorting AA/AB half-transformed integrals.
	Starting BB first half-transformation.
	Sorting BB half-transformed integrals.
	First half integral transformation complete.
	Starting AA second half-transformation.
	Starting AB second half-transformation.
	Starting BB second half-transformation.
	Two-electron integral transformation complete.
	(OV|OV)...
	Starting AA second half-transformation.
	Starting AB second half-transformation.
	Starting BB second half-transformation.
	Two-electron integral transformation complete.
	(OV|VV)...
	Starting AA second half-transformation.
	Starting AB second half-transformation.
	Starting BB second half-transformation.
	Two-electron integral transformation complete.
	(VV|OO)...
	Starting AA/AB first half-transformation.
	Sorting AA/AB half-transformed integrals.
	Starting BB first half-transformation.
	Sorting BB half-transformed integrals.
	First half integral transformation complete.
	Starting AA second half-transformation.
	Starting AB second half-transformation.
	Starting BB second half-transformation.
	Two-electron integral transformation complete.
	(VV|OV)...
	Starting AA second half-transformation.
	Starting AB second half-transformation.
	Starting BB second half-transformation.
	Two-electron integral transformation complete.
	(VV|VV)...
	Starting AA second half-transformation.
	Starting AB second half-transformation.
	Starting BB second half-transformation.
	Two-electron integral transformation complete.
	Frozen core energy     =   -288.66539506015397

	Size of irrep 0 of <AB|CD> integrals:     33.814 (MW) /    270.514 (MB)
	Size of irrep 1 of <AB|CD> integrals:     24.069 (MW) /    192.551 (MB)
	Size of irrep 2 of <AB|CD> integrals:     28.955 (MW) /    231.641 (MB)
	Size of irrep 3 of <AB|CD> integrals:     29.441 (MW) /    235.532 (MB)
	Total:                                   116.280 (MW) /    930.238 (MB)

	Size of irrep 0 of <ab|cd> integrals:     34.398 (MW) /    275.186 (MB)
	Size of irrep 1 of <ab|cd> integrals:     24.572 (MW) /    196.575 (MB)
	Size of irrep 2 of <ab|cd> integrals:     29.779 (MW) /    238.231 (MB)
	Size of irrep 3 of <ab|cd> integrals:     29.779 (MW) /    238.231 (MB)
	Total:                                   118.528 (MW) /    948.222 (MB)

	Size of irrep 0 of <Ab|Cd> integrals:    141.325 (MW) /   1130.596 (MB)
	Size of irrep 1 of <Ab|Cd> integrals:     97.279 (MW) /    778.230 (MB)
	Size of irrep 2 of <Ab|Cd> integrals:    117.462 (MW) /    939.698 (MB)
	Size of irrep 3 of <Ab|Cd> integrals:    118.440 (MW) /    947.518 (MB)
	Total:                                   474.505 (MW) /   3796.042 (MB)

	Size of irrep 0 of <IA|BC> integrals:      2.391 (MW) /     19.130 (MB)
	Size of irrep 1 of <IA|BC> integrals:      1.109 (MW) /      8.870 (MB)
	Size of irrep 2 of <IA|BC> integrals:      1.894 (MW) /     15.153 (MB)
	Size of irrep 3 of <IA|BC> integrals:      1.443 (MW) /     11.547 (MB)
	Total:                                     6.837 (MW) /     54.700 (MB)

	Size of irrep 0 of <ia|bc> integrals:      1.815 (MW) /     14.518 (MB)
	Size of irrep 1 of <ia|bc> integrals:      0.615 (MW) /      4.917 (MB)
	Size of irrep 2 of <ia|bc> integrals:      1.113 (MW) /      8.906 (MB)
	Size of irrep 3 of <ia|bc> integrals:      1.113 (MW) /      8.906 (MB)
	Total:                                     4.656 (MW) /     37.247 (MB)

	Size of irrep 0 of <Ia|Bc> integrals:      2.413 (MW) /     19.306 (MB)
	Size of irrep 1 of <Ia|Bc> integrals:      1.115 (MW) /      8.916 (MB)
	Size of irrep 2 of <Ia|Bc> integrals:      1.929 (MW) /     15.433 (MB)
	Size of irrep 3 of <Ia|Bc> integrals:      1.447 (MW) /     11.580 (MB)
	Total:                                     6.904 (MW) /     55.235 (MB)

	Size of irrep 0 of <iA|bC> integrals:      1.807 (MW) /     14.456 (MB)
	Size of irrep 1 of <iA|bC> integrals:      0.612 (MW) /      4.892 (MB)
	Size of irrep 2 of <iA|bC> integrals:      1.084 (MW) /      8.670 (MB)
	Size of irrep 3 of <iA|bC> integrals:      1.110 (MW) /      8.881 (MB)
	Total:                                     4.612 (MW) /     36.899 (MB)

	Size of irrep 0 of tIjAb amplitudes:       0.048 (MW) /      0.380 (MB)
	Size of irrep 1 of tIjAb amplitudes:       0.000 (MW) /      0.000 (MB)
	Size of irrep 2 of tIjAb amplitudes:       0.022 (MW) /      0.173 (MB)
	Size of irrep 3 of tIjAb amplitudes:       0.000 (MW) /      0.000 (MB)
	Total:                                     0.069 (MW) /      0.554 (MB)

	Nuclear Rep. energy          =      4.88364704983212
	SCF energy                   =   -289.44277711170537
	One-electron energy          =     -9.00612546281893
	Two-electron (AA) energy     =      0.84792203879554
	Two-electron (BB) energy     =      0.26823655192274
	Two-electron (AB) energy     =      2.22893777071707
	Two-electron energy          =      3.34509636143535
	Reference energy             =   -289.44277711170542

*** tstop() called on cqc05 at Fri Aug 21 06:19:07 2020
Module time:
	user time   =      43.31 seconds =       0.72 minutes
	system time =      26.56 seconds =       0.44 minutes
	total time  =         70 seconds =       1.17 minutes
Total time:
	user time   =      93.50 seconds =       1.56 minutes
	system time =      29.45 seconds =       0.49 minutes
	total time  =        123 seconds =       2.05 minutes

*** tstart() called on cqc05
*** at Fri Aug 21 06:19:07 2020

            **************************
            *                        *
            *        CCENERGY        *
            *                        *
            **************************

    Nuclear Rep. energy (wfn)     =    4.883647049832115
    SCF energy          (wfn)     = -289.442777111705368
    Reference energy    (file100) = -289.442777111705425

    Input parameters:
    -----------------
    Wave function   =     CCSD
    Reference wfn   =     UHF
    Brueckner       =     No
    Memory (Mbytes) =     250000.0
    Maxiter         =     50
    R_Convergence   =     1.0e-07
    E_Convergence   =     1.0e-06
    Restart         =     Yes
    DIIS            =     Yes
    AO Basis        =     NONE
    ABCD            =     NEW
    Cache Level     =     2
    Cache Type      =     LRU

      * MP2 total energy                      = -289.531881904724230
      * CCSD total energy                     = -289.552769086485057
*** Psi4 exiting successfully. Buy a developer a beer!
