                               Psi4 1.4a3.dev88

  ==> Input File <==

--------------------------------------------------------------------------
# Any line starting with the # character is a comment line
memory 250000 mb
molecule molecule{
0 1
O          0.0000000000        0.0000000000       -0.0661495700
H          0.0000000000       -0.7581329363        0.5250081505
H          0.0000000000        0.7581329363        0.5250081505
}

set {
  reference rhf
  basis aug-cc-pV(5+d)Z
  scf_type OUT_OF_CORE
  freeze_core true
}

energy('ccsd(t)')
--------------------------------------------------------------------------

    Molecular point group: c2v

    Geometry (in Angstrom), charge = 0, multiplicity = 1:

       Center              X                  Y                   Z               Mass
    ------------   -----------------  -----------------  -----------------  -----------------
         O           -0.000000000000     0.000000000000    -0.066159341383    15.994914619570
         H            0.000000000000    -0.758132936300     0.524998379117     1.007825032230
         H           -0.000000000000     0.758132936300     0.524998379117     1.007825032230

  Charge       = 0
  Multiplicity = 1
  Basis Set: AUG-CC-PV(5+D)Z
    Blend: AUG-CC-PV(5+D)Z

    Orbital Energies [Eh]
    ---------------------

    Doubly Occupied:

       1A1   -20.564924     2A1    -1.350805     1B2    -0.714740
       3A1    -0.584982     1B1    -0.510299

  @RHF Final Energy:   -76.06696543877524

   => Energetics <=

    Nuclear Repulsion Energy =              9.1560486153995484
    One-Electron Energy =                -122.9945265422516201
    Two-Electron Energy =                  37.7715124880768371
    Total Energy =                        -76.0669654387752416

  Dipole Moment: [D]
     X:     0.0000      Y:     0.0000      Z:     1.9905     Total:     1.9905

      * MP2 total energy                      =  -76.360211233171498
      * CCSD total energy                     =  -76.360586713698794
      * CCSD(T) total energy                  =  -76.370281052612270
*** Psi4 exiting successfully. Buy a developer a beer!
