                               Psi4 1.4a3.dev88

  ==> Input File <==

--------------------------------------------------------------------------
# Any line starting with the # character is a comment line
memory 250000 mb
molecule molecule{
0 1
O          0.0000000000        0.0000000000       -0.0661495700
H          0.0000000000       -0.7581329363        0.5250081505
H          0.0000000000        0.7581329363        0.5250081505
}

set {
  reference rhf
  basis aug-cc-pV(d+d)Z
  scf_type OUT_OF_CORE
  freeze_core true
}

energy('ccsd(t)')
--------------------------------------------------------------------------

    Molecular point group: c2v

    Geometry (in Angstrom), charge = 0, multiplicity = 1:

       Center              X                  Y                   Z               Mass
    ------------   -----------------  -----------------  -----------------  -----------------
         O           -0.000000000000     0.000000000000    -0.066159341383    15.994914619570
         H            0.000000000000    -0.758132936300     0.524998379117     1.007825032230
         H           -0.000000000000     0.758132936300     0.524998379117     1.007825032230

  Charge       = 0
  Multiplicity = 1
  Basis Set: AUG-CC-PV(D+D)Z
    Blend: AUG-CC-PV(D+D)Z

    Orbital Energies [Eh]
    ---------------------

    Doubly Occupied:

       1A1   -20.578140     2A1    -1.354796     1B2    -0.716242
       3A1    -0.585647     1B1    -0.509216

  @RHF Final Energy:   -76.04114095562824

   => Energetics <=

    Nuclear Repulsion Energy =              9.1560486153995484
    One-Electron Energy =                -122.9062978198315648
    Two-Electron Energy =                  37.7091082488037870
    Total Energy =                        -76.0411409556282223

  Dipole Moment: [D]
     X:     0.0000      Y:     0.0000      Z:     2.0085     Total:     2.0085

      * MP2 total energy                      =  -76.260871012971933
      * CCSD total energy                     =  -76.268615083502979
      * CCSD(T) total energy                  =  -76.273854691326648
*** Psi4 exiting successfully. Buy a developer a beer!
