                               Psi4 1.4a3.dev88

  ==> Input File <==

--------------------------------------------------------------------------
# Any line starting with the # character is a comment line
memory 250000 mb
molecule molecule{
0 1
O          0.0000000000        0.0000000000       -0.0661495700
H          0.0000000000       -0.7581329363        0.5250081505
H          0.0000000000        0.7581329363        0.5250081505
}

set {
  reference rhf
  basis aug-cc-pv(q+d)z
  scf_type OUT_OF_CORE
  freeze_core true
}

energy('ccsd(t)')
--------------------------------------------------------------------------

    Molecular point group: c2v

    Geometry (in Angstrom), charge = 0, multiplicity = 1:

       Center              X                  Y                   Z               Mass
    ------------   -----------------  -----------------  -----------------  -----------------
         O           -0.000000000000     0.000000000000    -0.066159341383    15.994914619570
         H            0.000000000000    -0.758132936300     0.524998379117     1.007825032230
         H           -0.000000000000     0.758132936300     0.524998379117     1.007825032230

  Charge       = 0
  Multiplicity = 1
  Basis Set: AUG-CC-PV(Q+D)Z
    Blend: AUG-CC-PV(Q+D)Z

    Orbital Energies [Eh]
    ---------------------

    Doubly Occupied:

       1A1   -20.565649     2A1    -1.351038     1B2    -0.714766
       3A1    -0.584995     1B1    -0.510271

  @RHF Final Energy:   -76.06564879782887

   => Energetics <=

    Nuclear Repulsion Energy =              9.1560486153995484
    One-Electron Energy =                -122.9899587686239784
    Two-Electron Energy =                  37.7682613553955520
    Total Energy =                        -76.0656487978288709

  Dipole Moment: [D]
     X:     0.0000      Y:     0.0000      Z:     1.9905     Total:     1.9905

      * MP2 total energy                      =  -76.351906821585601
      * CCSD total energy                     =  -76.354161977519439
      * CCSD(T) total energy                  =  -76.363575931362490
*** Psi4 exiting successfully. Buy a developer a beer!
