                               Psi4 1.2a1.dev939

  ==> Input File <==

--------------------------------------------------------------------------
# Any line starting with the # character is a comment line

memory 32000 mb

molecule molecule {
1 1
Al          0.0000000000        0.0000000000        0.0000000000
}

set {
  reference rhf
  basis aug-cc-pv(Q+d)z
  scf_type OUT_OF_CORE
  freeze_core true
}

energy('ccsd')
--------------------------------------------------------------------------

    Molecular point group: d2h
    Geometry (in Angstrom), charge = 1, multiplicity = 1:

       Center              X                  Y                   Z               Mass
    ------------   -----------------  -----------------  -----------------  -----------------
          AL          0.000000000000     0.000000000000     0.000000000000    26.981538627000

  Charge       = 1
  Multiplicity = 1
  Basis Set: AUG-CC-PV(Q+D)Z
    Blend: AUG-CC-PV(Q+D)Z

    Orbital Energies (a.u.)
    -----------------------

    Doubly Occupied:

       1Ag   -58.813559     2Ag    -5.217878     1B1u   -3.522973
       1B3u   -3.522973     1B2u   -3.522973     3Ag    -0.652304

  @RHF Final Energy:  -241.67435616019478

   => Energetics <=

    Nuclear Repulsion Energy =              0.0000000000000000
    One-Electron Energy =                -332.8433934445619116
    Two-Electron Energy =                  91.1690372843671355
    Total Energy =                       -241.6743561601947761
      * MP2 total energy                      = -241.703487093162863
      * CCSD total energy                     = -241.714532266658182
*** Psi4 exiting successfully. Buy a developer a beer!
