                               Psi4 1.2a1.dev939

  ==> Input File <==

--------------------------------------------------------------------------
# Any line starting with the # character is a comment line

memory 32000 mb

molecule molecule {
1 1
Al          0.0000000000        0.0000000000        0.0000000000
}

set {
  reference rhf

  basis aug-cc-pv(5+d)z
  scf_type OUT_OF_CORE
  freeze_core true
}

energy('ccsd')
--------------------------------------------------------------------------

    Molecular point group: d2h
    Geometry (in Angstrom), charge = 1, multiplicity = 1:

       Center              X                  Y                   Z               Mass
    ------------   -----------------  -----------------  -----------------  -----------------
          AL          0.000000000000     0.000000000000     0.000000000000    26.981538627000

  Charge       = 1
  Multiplicity = 1
  Basis Set: AUG-CC-PV(5+D)Z
    Blend: AUG-CC-PV(5+D)Z

    Orbital Energies (a.u.)
    -----------------------

    Doubly Occupied:

       1Ag   -58.812520     2Ag    -5.217593     1B1u   -3.522712
       1B3u   -3.522712     1B2u   -3.522712     3Ag    -0.652303

  @RHF Final Energy:  -241.67461434389767

   => Energetics <=

    Nuclear Repulsion Energy =              0.0000000000000000
    One-Electron Energy =                -332.8481234155203197
    Two-Electron Energy =                  91.1735090716226466
    Total Energy =                       -241.6746143438976731
      * MP2 total energy                      = -241.704464104375376
      * CCSD total energy                     = -241.715036715385594
*** Psi4 exiting successfully. Buy a developer a beer!
