                               Psi4 1.2a1.dev939

  ==> Input File <==

--------------------------------------------------------------------------
# Any line starting with the # character is a comment line

memory 32000 mb

molecule molecule {
1 1
Al          0.0000000000        0.0000000000        0.0000000000
}

set {
  reference rhf
  basis aug-cc-pv(D+d)z
  scf_type OUT_OF_CORE
  freeze_core true
}

energy('ccsd')
--------------------------------------------------------------------------

    Molecular point group: d2h
    Geometry (in Angstrom), charge = 1, multiplicity = 1:

       Center              X                  Y                   Z               Mass
    ------------   -----------------  -----------------  -----------------  -----------------
          AL          0.000000000000     0.000000000000     0.000000000000    26.981538627000

  Charge       = 1
  Multiplicity = 1
  Basis Set: AUG-CC-PV(D+D)Z
    Blend: AUG-CC-PV(D+D)Z

    Orbital Energies (a.u.)
    -----------------------

    Doubly Occupied:

       1Ag   -58.820228     2Ag    -5.220841     1B2u   -3.526763
       1B3u   -3.526763     1B1u   -3.526763     3Ag    -0.652482

  @RHF Final Energy:  -241.66853183003764

   => Energetics <=

    Nuclear Repulsion Energy =              0.0000000000000000
    One-Electron Energy =                -332.7893833841548030
    Two-Electron Energy =                  91.1208515541171664
    Total Energy =                       -241.6685318300376366
      * MP2 total energy                      = -241.694048752959077
      * CCSD total energy                     = -241.707321709099602
*** Psi4 exiting successfully. Buy a developer a beer!
