                               Psi4 1.2a1.dev939

  ==> Input File <==

--------------------------------------------------------------------------
# Any line starting with the # character is a comment line

memory 32000 mb

molecule molecule {
1 1
Al          0.0000000000        0.0000000000        0.0000000000
}

set {
  reference rhf
  basis aug-cc-pv(T+d)z
  scf_type OUT_OF_CORE
  freeze_core true
}

energy('ccsd')
--------------------------------------------------------------------------

    Molecular point group: d2h
    Geometry (in Angstrom), charge = 1, multiplicity = 1:

       Center              X                  Y                   Z               Mass
    ------------   -----------------  -----------------  -----------------  -----------------
          AL          0.000000000000     0.000000000000     0.000000000000    26.981538627000

  Charge       = 1
  Multiplicity = 1
  Basis Set: AUG-CC-PV(T+D)Z
    Blend: AUG-CC-PV(T+D)Z

    Orbital Energies (a.u.)
    -----------------------

    Doubly Occupied:

       1Ag   -58.813034     2Ag    -5.217466     1B1u   -3.522573
       1B3u   -3.522573     1B2u   -3.522573     3Ag    -0.652256

  @RHF Final Energy:  -241.67345326300679

   => Energetics <=

    Nuclear Repulsion Energy =              0.0000000000000000
    One-Electron Energy =                -332.8459541266595352
    Two-Electron Energy =                  91.1725008636527434
    PCM Polarization Energy =               0.0000000000000000
    Total Energy =                       -241.6734532630067918
      * MP2 total energy                      = -241.701293206686273
      * CCSD total energy                     = -241.713015790244583
*** Psi4 exiting successfully. Buy a developer a beer!
