                               Psi4 1.4a3.dev88

  ==> Input File <==

--------------------------------------------------------------------------
# Any line starting with the # character is a comment line
memory 250000 mb
molecule molecule{
0 1
N          0.7147735098        0.0593513937        0.0430540470
N         -0.7147735098       -0.0593513937        0.0430540470
H          1.0693082921        0.3150198703       -0.8714981971
H          1.0889697597       -0.8506903245        0.2732035372
H         -1.0889697597        0.8506903245        0.2732035372
H         -1.0693082921       -0.3150198703       -0.8714981971
}

set {
  reference rhf
  basis aug-cc-pv(q+d)z
  scf_type OUT_OF_CORE
  freeze_core true
}

energy('ccsd(t)')
--------------------------------------------------------------------------

    Molecular point group: c2

    Geometry (in Angstrom), charge = 0, multiplicity = 1:

       Center              X                  Y                   Z               Mass
    ------------   -----------------  -----------------  -----------------  -----------------
         N            0.714773509800     0.059351393700     0.043059498656    14.003074004430
         N           -0.714773509800    -0.059351393700     0.043059498656    14.003074004430
         H            1.069308292100     0.315019870300    -0.871492745444     1.007825032230
         H            1.088969759700    -0.850690324500     0.273208988856     1.007825032230
         H           -1.088969759700     0.850690324500     0.273208988856     1.007825032230
         H           -1.069308292100    -0.315019870300    -0.871492745444     1.007825032230

  Charge       = 0
  Multiplicity = 1
  Basis Set: AUG-CC-PV(Q+D)Z
    Blend: AUG-CC-PV(Q+D)Z

    Orbital Energies [Eh]
    ---------------------

    Doubly Occupied:

       1A    -15.568910     1B    -15.568450     2A     -1.255483
       2B     -1.011189     3A     -0.678043     3B     -0.668401
       4A     -0.606644     4B     -0.417736     5A     -0.410731

  @RHF Final Energy:  -111.23473551472512

   => Energetics <=

    Nuclear Repulsion Energy =             41.5843300386098065
    One-Electron Energy =                -233.2669546240619525
    Two-Electron Energy =                  80.4478890707270295
    Total Energy =                       -111.2347355147251164

  Dipole Moment: [D]
     X:     0.0000      Y:     0.0000      Z:    -2.0461     Total:     2.0461

      * MP2 total energy                      = -111.709824440083196
      * CCSD total energy                     = -111.721818236457196
      * CCSD(T) total energy                  = -111.740713832317795
*** Psi4 exiting successfully. Buy a developer a beer!
