                               Psi4 1.2a1.dev938

  ==> Input File <==

--------------------------------------------------------------------------
# Any line starting with the # character is a comment line
memory 250000 mb
molecule molecule{
0 2
Si         0.0000000000        0.0000000000        0.0439180441
H          1.4047129935        0.0000000000       -0.4079145674
H         -0.7023564968        1.2165171374       -0.4079145674
H         -0.7023564968       -1.2165171374       -0.4079145674
}

set {
  reference uhf
  basis aug-cc-pv(t+d)z
  scf_type OUT_OF_CORE
  freeze_core true
}

energy('ccsd')
--------------------------------------------------------------------------

    Molecular point group: cs

    Geometry (in Angstrom), charge = 0, multiplicity = 2:

       Center              X                  Y                   Z               Mass
    ------------   -----------------  -----------------  -----------------  -----------------
          SI         -0.000000000002    -0.044067320962     0.000000000000    27.976926532460
           H         -0.702356496740     0.407765290538     1.216517137419     1.007825032070
           H         -0.702356496740     0.407765290538    -1.216517137419     1.007825032070
           H          1.404712993526     0.407765290538     0.000000000000     1.007825032070

  Charge       = 0
  Multiplicity = 2
  Basis Set: AUG-CC-PV(T+D)Z
    Blend: AUG-CC-PV(T+D)Z

    Orbital Energies (a.u.)
    -----------------------

    Alpha Occupied:

       1Ap   -68.785142     2Ap    -6.135035     3Ap    -4.247874
       1App   -4.237802     4Ap    -4.237802     5Ap    -0.730950
       6Ap    -0.494934     2App   -0.494934     7Ap    -0.337453

    Alpha Virtual:

       8Ap     0.031659     3App    0.056651     9Ap     0.056651
      10Ap     0.063203     4App    0.068604    11Ap     0.068604
      12Ap     0.127880    13Ap     0.137404     5App    0.137404
      14Ap     0.144978    15Ap     0.154398     6App    0.154398
       7App    0.248788    16Ap     0.248788    17Ap     0.249663
      18Ap     0.265557    19Ap     0.276817     8App    0.276817
       9App    0.307850    10App    0.310873    20Ap     0.310873
      11App    0.351446    21Ap     0.351446    22Ap     0.366340
      23Ap     0.450882    24Ap     0.476178    12App    0.476178
      25Ap     0.524937    26Ap     0.539819    13App    0.539819
      27Ap     0.552106    28Ap     0.588099    29Ap     0.596022
      14App    0.596022    30Ap     0.621703    15App    0.621703
      16App    0.634306    17App    0.660143    31Ap     0.660143
      32Ap     0.669433    33Ap     0.848853    18App    0.902629
      34Ap     0.902629    19App    0.949030    20App    0.966699
      35Ap     0.966699    21App    1.024107    36Ap     1.024107
      37Ap     1.068145    38Ap     1.074767    22App    1.074767
      23App    1.122492    39Ap     1.122492    40Ap     1.183030
      24App    1.221961    41Ap     1.221961    25App    1.253889
      42Ap     1.275405    26App    1.280776    43Ap     1.280776
      44Ap     1.326111    27App    1.335338    45Ap     1.343245
      28App    1.343245    29App    1.385207    46Ap     1.385207
      47Ap     1.451499    48Ap     1.513046    30App    1.513046
      49Ap     1.598631    50Ap     1.758914    51Ap     1.876560
      31App    1.876560    52Ap     1.934470    32App    1.934470
      53Ap     1.944375    33App    2.017108    34App    2.173183
      54Ap     2.173183    55Ap     2.862014    35App    3.022402
      56Ap     3.022402    57Ap     3.190639    36App    3.461266
      58Ap     3.461266    37App    3.934130    59Ap     3.934130
      38App    3.972963    60Ap     4.003890    61Ap     4.039144
      39App    4.039144    62Ap     4.086906    40App    4.086906
      63Ap     4.125408    41App    4.145883    64Ap     4.145883
      65Ap     4.289385    42App    4.303699    66Ap     4.347229
      43App    4.423049    67Ap     4.423049    44App    4.425486
      45App    4.451173    68Ap     4.451173    69Ap     4.458298
      70Ap     4.677646    46App    4.677646    47App    4.978953
      71Ap     4.978953    72Ap     5.099986    48App    5.099986
      73Ap     5.125649    49App    6.054769    74Ap     6.054769
      75Ap     7.013184

    Beta Occupied:

       1Ap   -68.779077     2Ap    -6.126178     3Ap    -4.233695
       1App   -4.233695     4Ap    -4.224658     5Ap    -0.685834
       2App   -0.487520     6Ap    -0.487520

    Beta Virtual:

       7Ap     0.023993     8Ap     0.033635     3App    0.057288
       9Ap     0.057288    10Ap     0.070102     4App    0.070102
      11Ap     0.094168    12Ap     0.142456     5App    0.142802
      13Ap     0.142802    14Ap     0.151115    15Ap     0.172012
       6App    0.172012     7App    0.250905    16Ap     0.250905
      17Ap     0.259082    18Ap     0.281717     8App    0.281717
      19Ap     0.300174     9App    0.308084    10App    0.318894
      20Ap     0.318894    11App    0.369110    21Ap     0.369110
      22Ap     0.375482    23Ap     0.479118    24Ap     0.486802
      12App    0.486802    25Ap     0.537544    26Ap     0.557663
      13App    0.565306    27Ap     0.565306    14App    0.601952
      28Ap     0.601952    29Ap     0.617574    30Ap     0.632482
      15App    0.632482    16App    0.636250    17App    0.665778
      31Ap     0.665778    32Ap     0.703165    33Ap     0.860134
      18App    0.909442    34Ap     0.909442    19App    0.952428
      20App    0.970435    35Ap     0.970435    21App    1.028650
      36Ap     1.028650    37Ap     1.074370    38Ap     1.077349
      22App    1.077349    23App    1.129059    39Ap     1.129059
      40Ap     1.185450    24App    1.226133    41Ap     1.226133
      25App    1.254919    42Ap     1.285224    43Ap     1.294415
      26App    1.294415    27App    1.335905    28App    1.347158
      44Ap     1.347158    45Ap     1.349683    46Ap     1.403442
      29App    1.403442    47Ap     1.458867    30App    1.536468
      48Ap     1.536468    49Ap     1.616905    50Ap     1.773817
      51Ap     1.883427    31App    1.883427    52Ap     1.944095
      32App    1.944095    53Ap     1.951853    33App    2.024738
      34App    2.175231    54Ap     2.175231    55Ap     2.895736
      35App    3.026292    56Ap     3.026292    57Ap     3.193602
      36App    3.465493    58Ap     3.465493    37App    3.935040
      59Ap     3.935040    38App    3.974413    60Ap     4.006381
      61Ap     4.040207    39App    4.040207    62Ap     4.087904
      40App    4.087904    63Ap     4.127141    41App    4.148095
      64Ap     4.148095    65Ap     4.294604    42App    4.306322
      66Ap     4.348942    43App    4.424108    67Ap     4.424108
      44App    4.425650    45App    4.452772    68Ap     4.452772
      69Ap     4.460417    70Ap     4.678356    46App    4.678356
      47App    4.982320    71Ap     4.982320    48App    5.103521
      72Ap     5.103521    73Ap     5.130817    49App    6.058788
      74Ap     6.058788    75Ap     7.019163

    Final Occupation by Irrep:
             Ap   App
    DOCC [     6,    2 ]
    SOCC [     1,    0 ]

  Energy converged.

  @UHF Final Energy:  -290.64293721291006

   => Energetics <=

    Nuclear Repulsion Energy =             15.7145435397310269
    One-Electron Energy =                -433.7548580455896285
    Two-Electron Energy =                 127.3973772929485335
    PCM Polarization Energy =               0.0000000000000000
    Total Energy =                       -290.6429372129100557

    Alert: EFP and PCM quantities not currently incorporated into SCF psivars.
  UHF NO Occupations:
  HONO-2 :    2App 1.9997190
  HONO-1 :    6 Ap 1.9979904
  HONO-0 :    7 Ap 1.0000000
  LUNO+0 :    8 Ap 0.0020096
  LUNO+1 :    3App 0.0002810
  LUNO+2 :    9 Ap 0.0002810
  LUNO+3 :   10 Ap 0.0000045

Properties will be evaluated at   0.000000,   0.000000,   0.000000 Bohr

Properties computed using the SCF density matrix

  Nuclear Dipole Moment: (a.u.)
     X:     0.0000      Y:     1.1458      Z:     0.0000

  Electronic Dipole Moment: (a.u.)
     X:    -0.0000      Y:    -1.1341      Z:     0.0000

  Dipole Moment: (a.u.)
     X:    -0.0000      Y:     0.0117      Z:     0.0000     Total:     0.0117

  Dipole Moment: (Debye)
     X:    -0.0000      Y:     0.0299      Z:     0.0000     Total:     0.0299

*** tstop() called on cqc05 at Thu Aug 20 20:07:09 2020
Module time:
	user time   =       9.15 seconds =       0.15 minutes
	system time =       0.62 seconds =       0.01 minutes
	total time  =          9 seconds =       0.15 minutes
Total time:
	user time   =       9.15 seconds =       0.15 minutes
	system time =       0.62 seconds =       0.01 minutes
	total time  =          9 seconds =       0.15 minutes

*** tstart() called on cqc05
*** at Thu Aug 20 20:07:09 2020

	Wfn Parameters:
	--------------------
	Wavefunction         = CCSD
	Number of irreps     = 2
	Number of MOs        = 124
	Number of active MOs = 119
	AO-Basis             = NONE
	Semicanonical        = false
	Reference            = UHF
	Print Level          = 1

	IRREP	# MOs	# FZDC	# DOCC	# SOCC	# VIRT	# FZVR
	-----	-----	------	------	------	------	------
	 Ap	   75	    4	    2	    1	    68	    0
	 App	   49	    1	    1	    0	    47	    0
	Transforming integrals...
	IWL integrals will be deleted.
	(OO|OO)...
	Presorting SO-basis two-electron integrals.
	Sorting File: SO Ints (nn|nn) nbuckets = 1
	Transforming the one-electron integrals and constructing Fock matrices
	Starting AA/AB first half-transformation.
	Sorting AA/AB half-transformed integrals.
	Starting BB first half-transformation.
	Sorting BB half-transformed integrals.
	First half integral transformation complete.
	Starting AA second half-transformation.
	Starting AB second half-transformation.
	Starting BB second half-transformation.
	Two-electron integral transformation complete.
	(OO|OV)...
	Starting AA second half-transformation.
	Starting AB second half-transformation.
	Starting BB second half-transformation.
	Two-electron integral transformation complete.
	(OO|VV)...
	Starting AA second half-transformation.
	Starting AB second half-transformation.
	Starting BB second half-transformation.
	Two-electron integral transformation complete.
	(OV|OO)...
	Starting AA/AB first half-transformation.
	Sorting AA/AB half-transformed integrals.
	Starting BB first half-transformation.
	Sorting BB half-transformed integrals.
	First half integral transformation complete.
	Starting AA second half-transformation.
	Starting AB second half-transformation.
	Starting BB second half-transformation.
	Two-electron integral transformation complete.
	(OV|OV)...
	Starting AA second half-transformation.
	Starting AB second half-transformation.
	Starting BB second half-transformation.
	Two-electron integral transformation complete.
	(OV|VV)...
	Starting AA second half-transformation.
	Starting AB second half-transformation.
	Starting BB second half-transformation.
	Two-electron integral transformation complete.
	(VV|OO)...
	Starting AA/AB first half-transformation.
	Sorting AA/AB half-transformed integrals.
	Starting BB first half-transformation.
	Sorting BB half-transformed integrals.
	First half integral transformation complete.
	Starting AA second half-transformation.
	Starting AB second half-transformation.
	Starting BB second half-transformation.
	Two-electron integral transformation complete.
	(VV|OV)...
	Starting AA second half-transformation.
	Starting AB second half-transformation.
	Starting BB second half-transformation.
	Two-electron integral transformation complete.
	(VV|VV)...
	Starting AA second half-transformation.
	Starting AB second half-transformation.
	Starting BB second half-transformation.
	Two-electron integral transformation complete.
	Frozen core energy     =   -295.93342869344139

	Size of irrep 0 of <AB|CD> integrals:     11.283 (MW) /     90.263 (MB)
	Size of irrep 1 of <AB|CD> integrals:     10.214 (MW) /     81.715 (MB)
	Total:                                    21.497 (MW) /    171.978 (MB)

	Size of irrep 0 of <ab|cd> integrals:     11.744 (MW) /     93.955 (MB)
	Size of irrep 1 of <ab|cd> integrals:     10.517 (MW) /     84.136 (MB)
	Total:                                    22.261 (MW) /    178.091 (MB)

	Size of irrep 0 of <Ab|Cd> integrals:     47.624 (MW) /    380.990 (MB)
	Size of irrep 1 of <Ab|Cd> integrals:     41.461 (MW) /    331.686 (MB)
	Total:                                    89.085 (MW) /    712.676 (MB)

	Size of irrep 0 of <IA|BC> integrals:      1.715 (MW) /     13.721 (MB)
	Size of irrep 1 of <IA|BC> integrals:      1.336 (MW) /     10.687 (MB)
	Total:                                     3.051 (MW) /     24.408 (MB)

	Size of irrep 0 of <ia|bc> integrals:      1.289 (MW) /     10.316 (MB)
	Size of irrep 1 of <ia|bc> integrals:      1.057 (MW) /      8.458 (MB)
	Total:                                     2.347 (MW) /     18.773 (MB)

	Size of irrep 0 of <Ia|Bc> integrals:      1.753 (MW) /     14.023 (MB)
	Size of irrep 1 of <Ia|Bc> integrals:      1.352 (MW) /     10.818 (MB)
	Total:                                     3.105 (MW) /     24.840 (MB)

	Size of irrep 0 of <iA|bC> integrals:      1.263 (MW) /     10.103 (MB)
	Size of irrep 1 of <iA|bC> integrals:      1.043 (MW) /      8.345 (MB)
	Total:                                     2.306 (MW) /     18.448 (MB)

	Size of irrep 0 of tIjAb amplitudes:       0.048 (MW) /      0.386 (MB)
	Size of irrep 1 of tIjAb amplitudes:       0.032 (MW) /      0.258 (MB)
	Total:                                     0.081 (MW) /      0.644 (MB)

	Nuclear Rep. energy          =     15.71454353973103
	SCF energy                   =   -290.64293721291006
	One-electron energy          =    -17.12895905989108
	Two-electron (AA) energy     =      1.63989490847617
	Two-electron (BB) energy     =      0.78745384670854
	Two-electron (AB) energy     =      4.27755824550778
	Two-electron energy          =      6.70490700069249
	Reference energy             =   -290.64293721290898

*** tstop() called on cqc05 at Thu Aug 20 20:07:24 2020
Module time:
	user time   =       9.31 seconds =       0.16 minutes
	system time =       5.42 seconds =       0.09 minutes
	total time  =         15 seconds =       0.25 minutes
Total time:
	user time   =      18.46 seconds =       0.31 minutes
	system time =       6.04 seconds =       0.10 minutes
	total time  =         24 seconds =       0.40 minutes

*** tstart() called on cqc05
*** at Thu Aug 20 20:07:24 2020

            **************************
            *                        *
            *        CCENERGY        *
            *                        *
            **************************

    Nuclear Rep. energy (wfn)     =   15.714543539731027
    SCF energy          (wfn)     = -290.642937212910056
    Reference energy    (file100) = -290.642937212908976

    Input parameters:
    -----------------
    Wave function   =     CCSD
    Reference wfn   =     UHF
    Brueckner       =     No
    Memory (Mbytes) =     250000.0
    Maxiter         =     50
    R_Convergence   =     1.0e-07
    E_Convergence   =     1.0e-06
    Restart         =     Yes
    DIIS            =     Yes
    AO Basis        =     NONE
    ABCD            =     NEW
    Cache Level     =     2
    Cache Type      =     LRU
    Print Level     =     1
    Num. of threads =     4
    # Amps to Print =     10
    Print MP2 Amps? =     No
    Analyze T2 Amps =     No
    Print Pair Ener =     No
    Local CC        =     No
    SCS-MP2         =     False
    SCSN-MP2        =     False
    SCS-CCSD        =     False

MP2 correlation energy -0.1183710618353914
                Solving CC Amplitude Equations
                ------------------------------
  Iter             Energy              RMS        T1Diag      D1Diag    New D1Diag    D2Diag
  ----     ---------------------    ---------   ----------  ----------  ----------   --------
     0        -0.118371061835394    0.000e+00    0.000000    0.000000    0.000000    0.000000
     1        -0.136727318258886    5.395e-02    0.009779    0.000000    0.000000    0.000000
     2        -0.144032635968536    2.109e-02    0.017119    0.000000    0.000000    0.000000
     3        -0.144283678065278    6.202e-03    0.020288    0.000000    0.000000    0.000000
     4        -0.144263772187512    2.142e-03    0.021237    0.000000    0.000000    0.000000
     5        -0.144251431408193    8.730e-04    0.021604    0.000000    0.000000    0.000000
     6        -0.144251893183988    2.898e-04    0.021657    0.000000    0.000000    0.000000
     7        -0.144255349622933    1.073e-04    0.021656    0.000000    0.000000    0.000000
     8        -0.144256249361275    3.292e-05    0.021658    0.000000    0.000000    0.000000
     9        -0.144255940920187    1.074e-05    0.021658    0.000000    0.000000    0.000000
    10        -0.144255912665826    4.182e-06    0.021658    0.000000    0.000000    0.000000
    11        -0.144255920149562    1.546e-06    0.021658    0.000000    0.000000    0.000000
    12        -0.144255957847652    5.255e-07    0.021658    0.000000    0.000000    0.000000
    13        -0.144255971068397    1.915e-07    0.021658    0.000000    0.000000    0.000000
    14        -0.144255970688954    6.302e-08    0.021658    0.000000    0.000000    0.000000
    14        -0.144255970688954    6.302e-08    0.021658    0.000000    0.000000    0.000000

    Iterations converged.

    CCSD corr. energy   =   -0.144255970688954
    PPL corr. energy    =    0.043781818026698
    OS PPL corr. energy =    0.040216487019347
    SS PPL corr. energy =    0.003565331007350
    Largest TIA Amplitudes:
              2   4        -0.0249432751
              2   9         0.0161807900
              3  71        -0.0117685066
              1   7        -0.0117684394
              2  10        -0.0116161681
              2  15         0.0110956468
              2   2        -0.0087164813
              2   6         0.0086261766
              2  20         0.0080763376
              2  14        -0.0073084073

    Largest Tia Amplitudes:
              0  12        -0.0109614340
              0   4        -0.0109579877
              1   8        -0.0106868086
              2  72        -0.0106867501
              0   0         0.0103102275
              0  10         0.0100927688
              0   7         0.0087666046
              1  11         0.0066164664
              2  74         0.0066164120
              0  25        -0.0057451778

    Largest TIJAB Amplitudes:
      3   2  71   9        -0.0125070987
      2   1   9   7        -0.0125070754
      3   2  75   9        -0.0122584529
      2   1  12   9         0.0122584162
      2   1  12   4        -0.0110662498
      3   2  75   4         0.0110662479
      3   2  71  12         0.0109319244
      3   2  75   7        -0.0109319226
      2   1  12   7        -0.0109319214
      2   1  75  71         0.0109319199

    Largest Tijab Amplitudes:
      2   1  71   8         0.0071515685
      2   1  72   6         0.0071515661
      2   1  74   9        -0.0065415559

      * MP2 total energy                      = -290.761308274744351
      * CCSD total energy                     = -290.787193183597935
*** Psi4 exiting successfully. Buy a developer a beer!
