                               Psi4 1.2a1.dev939

  ==> Input File <==

--------------------------------------------------------------------------
# Any line starting with the # character is a comment line

memory 32000 mb

molecule molecule {
0 1
P          0.0000000000        0.0000000000        0.9601625849
P          0.0000000000        0.0000000000       -0.9601625849
}

set {
  reference rhf

  basis aug-cc-pv(5+d)z
  scf_type OUT_OF_CORE
  freeze_core true
}

energy('ccsd')
--------------------------------------------------------------------------

    Molecular point group: d2h

    Geometry (in Angstrom), charge = 0, multiplicity = 1:

       Center              X                  Y                   Z               Mass
    ------------   -----------------  -----------------  -----------------  -----------------
           P          0.000000000000     0.000000000000     0.960162584900    30.973761629000
           P          0.000000000000     0.000000000000    -0.960162584900    30.973761629000

  Charge       = 0
  Multiplicity = 1
  Basis Set: AUG-CC-PV(5+D)Z
    Blend: AUG-CC-PV(5+D)Z

    Orbital Energies (a.u.)
    -----------------------

    Doubly Occupied:

       1Ag   -79.978759     1B1u  -79.978753     2Ag    -7.520116
       2B1u   -7.519489     3Ag    -5.412034     1B2u   -5.411343
       1B3u   -5.411343     1B2g   -5.411120     1B3g   -5.411120
       3B1u   -5.409969     4Ag    -0.894601     4B1u   -0.610770
       5Ag    -0.408323     2B2u   -0.367639     2B3u   -0.367639

  @RHF Final Energy:  -681.49752022382813

   => Energetics <=

    Nuclear Repulsion Energy =             62.0024534413359234
    One-Electron Energy =               -1066.7739156754682881
    Two-Electron Energy =                 323.2739420103043244
    Total Energy =                       -681.4975202238281327
      * MP2 total energy                      = -681.810255520873170
      * CCSD total energy                     = -681.817474454480816
*** Psi4 exiting successfully. Buy a developer a beer!
