                               Psi4 1.2a1.dev939

  ==> Input File <==

--------------------------------------------------------------------------
# Any line starting with the # character is a comment line

memory 32000 mb

molecule molecule {
0 1
P          0.0000000000        0.0000000000        0.9601625849
P          0.0000000000        0.0000000000       -0.9601625849
}

set {
  reference rhf
  basis aug-cc-pv(D+d)z
  scf_type OUT_OF_CORE
  freeze_core true
}

energy('ccsd')
--------------------------------------------------------------------------

    Molecular point group: d2h

    Geometry (in Angstrom), charge = 0, multiplicity = 1:

       Center              X                  Y                   Z               Mass
    ------------   -----------------  -----------------  -----------------  -----------------
           P          0.000000000000     0.000000000000     0.960162584900    30.973761629000
           P          0.000000000000     0.000000000000    -0.960162584900    30.973761629000

  Charge       = 0
  Multiplicity = 1
  Basis Set: AUG-CC-PV(D+D)Z
    Blend: AUG-CC-PV(D+D)Z

    Orbital Energies (a.u.)
    -----------------------

    Doubly Occupied:

       1Ag   -79.985570     1B1u  -79.985566     2Ag    -7.525467
       2B1u   -7.524894     3Ag    -5.417655     1B3u   -5.416659
       1B2u   -5.416659     1B3g   -5.416436     1B2g   -5.416436
       3B1u   -5.415632     4Ag    -0.899397     4B1u   -0.612409
       5Ag    -0.410206     2B2u   -0.368486     2B3u   -0.368486

  @RHF Final Energy:  -681.47434663503259

   => Energetics <=

    Nuclear Repulsion Energy =             62.0024534413359234
    One-Electron Energy =               -1066.5936842250207519
    Two-Electron Energy =                 323.1168841486521615
    Total Energy =                       -681.4743466350327026
      * MP2 total energy                      = -681.713805026159889
      * CCSD total energy                     = -681.732043923617425
*** Psi4 exiting successfully. Buy a developer a beer!
