                               Psi4 1.2a1.dev939

  ==> Input File <==

--------------------------------------------------------------------------
# Any line starting with the # character is a comment line

memory 32000 mb

molecule molecule {
0 1
P          0.0000000000        0.0000000000        0.9601625849
P          0.0000000000        0.0000000000       -0.9601625849
}

set {
  reference rhf
  basis aug-cc-pv(Q+d)z
  scf_type OUT_OF_CORE
  freeze_core true
}

energy('ccsd')
--------------------------------------------------------------------------

    Molecular point group: d2h

    Geometry (in Angstrom), charge = 0, multiplicity = 1:

       Center              X                  Y                   Z               Mass
    ------------   -----------------  -----------------  -----------------  -----------------
           P          0.000000000000     0.000000000000     0.960162584900    30.973761629000
           P          0.000000000000     0.000000000000    -0.960162584900    30.973761629000

  Charge       = 0
  Multiplicity = 1
  Basis Set: AUG-CC-PV(Q+D)Z
    Blend: AUG-CC-PV(Q+D)Z

    Orbital Energies (a.u.)
    -----------------------

    Doubly Occupied:

       1Ag   -79.978847     1B1u  -79.978841     2Ag    -7.520232
       2B1u   -7.519605     3Ag    -5.411944     1B2u   -5.411552
       1B3u   -5.411552     1B2g   -5.411329     1B3g   -5.411329
       3B1u   -5.409881     4Ag    -0.894716     4B1u   -0.610802
       5Ag    -0.408301     2B3u   -0.367693     2B2u   -0.367693

  @RHF Final Energy:  -681.49668517449606

   => Energetics <=

    Nuclear Repulsion Energy =             62.0024534413359234
    One-Electron Energy =               -1066.7696380478400897
    Two-Electron Energy =                 323.2704994320081937
    Total Energy =                       -681.4966851744959513
      * MP2 total energy                      = -681.800967701348782
      * CCSD total energy                     = -681.811551431962585
*** Psi4 exiting successfully. Buy a developer a beer!
