                               Psi4 1.2a1.dev939

  ==> Input File <==

--------------------------------------------------------------------------
# Any line starting with the # character is a comment line

memory 32000 mb

molecule molecule {
0 1
P          0.0000000000        0.0000000000        0.9601625849
P          0.0000000000        0.0000000000       -0.9601625849
}

set {
  reference rhf
  basis aug-cc-pv(T+d)z
  scf_type OUT_OF_CORE
  freeze_core true
}

energy('ccsd')
--------------------------------------------------------------------------

    Molecular point group: d2h

    Geometry (in Angstrom), charge = 0, multiplicity = 1:

       Center              X                  Y                   Z               Mass
    ------------   -----------------  -----------------  -----------------  -----------------
           P          0.000000000000     0.000000000000     0.960162584900    30.973761629000
           P          0.000000000000     0.000000000000    -0.960162584900    30.973761629000

  Charge       = 0
  Multiplicity = 1
  Basis Set: AUG-CC-PV(T+D)Z
    Blend: AUG-CC-PV(T+D)Z

    Orbital Energies (a.u.)
    -----------------------

    Doubly Occupied:

       1Ag   -79.979998     1B1u  -79.979992     2Ag    -7.520980
       2B1u   -7.520353     3Ag    -5.412598     1B2u   -5.411989
       1B3u   -5.411989     1B3g   -5.411767     1B2g   -5.411767
       3B1u   -5.410538     4Ag    -0.895224     4B1u   -0.611045
       5Ag    -0.408547     2B3u   -0.367731     2B2u   -0.367731

  @RHF Final Energy:  -681.49168544708118

   => Energetics <=

    Nuclear Repulsion Energy =             62.0024534413359234
    One-Electron Energy =               -1066.7437796148603866
    Two-Electron Energy =                 323.2496407264432605
    Total Energy =                       -681.4916854470811813
      * MP2 total energy                      = -681.777773497783187
      * CCSD total energy                     = -681.792979569499607
*** Psi4 exiting successfully. Buy a developer a beer!
