                               Psi4 1.2a1.dev939

  ==> Input File <==

--------------------------------------------------------------------------
# Any line starting with the # character is a comment line
memory 250000 mb
molecule molecule{
1 2
C          0.0000000000        0.0000000000        0.6448765675
O          0.0000000000        0.0000000000       -0.4841189327
}

set {
  reference uhf
  basis aug-cc-pv(6+d)z
  scf_type OUT_OF_CORE
  freeze_core true
}

energy('ccsd')
--------------------------------------------------------------------------

    Molecular point group: c2v

    Geometry (in Angstrom), charge = 1, multiplicity = 2:

       Center              X                  Y                   Z               Mass
    ------------   -----------------  -----------------  -----------------  -----------------
           C          0.000000000000     0.000000000000     0.645052391728    12.000000000000
           O          0.000000000000     0.000000000000    -0.483943108472    15.994914619560

  Charge       = 1
  Multiplicity = 2
  Basis Set: AUG-CC-PV(6+D)Z
    Blend: AUG-CC-PV(6+D)Z

    Orbital Energies (a.u.)
    -----------------------

    Alpha Occupied:

       1A1   -21.071997     2A1   -11.861302     3A1    -1.887622
       4A1    -1.207533     5A1    -1.077113     1B1    -0.988287
       1B2    -0.988286

    Alpha Virtual:

       2B1    -0.246420     2B2    -0.246419     6A1    -0.125155
       7A1    -0.093293     3B2    -0.089341     3B1    -0.089341
       8A1    -0.041123     4B1    -0.029136     4B2    -0.029136
       9A1    -0.006482     1A2    -0.006482    10A1     0.001693
      11A1     0.015931     5B2     0.028685     5B1     0.028685
      12A1     0.062865     6B1     0.068347     6B2     0.068347
      13A1     0.153498    14A1     0.197060     2A2     0.197060
       7B1     0.215983     7B2     0.215983    15A1     0.216540
       8B1     0.248333     8B2     0.248333     3A2     0.270497
      16A1     0.270497     9B1     0.286553     9B2     0.286553
      17A1     0.294703    18A1     0.313737    10B2     0.329248
      10B1     0.329248    19A1     0.337832    20A1     0.372741
       4A2     0.372741    11B2     0.401168    11B1     0.401168
      21A1     0.508457    22A1     0.615802    12B1     0.648373
      12B2     0.648373    13B2     0.654387    13B1     0.654387
      23A1     0.729674     5A2     0.729674    24A1     0.746479
      14B1     0.761249    14B2     0.761249    25A1     0.838296
      26A1     0.886349    27A1     0.907499     6A2     0.907499
      15B1     0.933130    15B2     0.933130    28A1     0.965409
       7A2     0.965409    16B1     1.008821    16B2     1.008821
      29A1     1.020586     8A2     1.020586    17B1     1.076046
      17B2     1.076046    30A1     1.081057    18B1     1.105597
      18B2     1.105597     9A2     1.105722    31A1     1.105722
      19B1     1.133074    19B2     1.133074    32A1     1.149083
      33A1     1.373636    34A1     1.426036    20B2     1.443738
      20B1     1.443738    21B1     1.497207    21B2     1.497207
      35A1     1.527566    10A2     1.527566    36A1     1.644774
      37A1     1.868884    11A2     1.868884    22B1     1.928390
      22B2     1.928390    23B1     1.982254    23B2     1.982254
      38A1     2.093323    12A2     2.093323    39A1     2.097380
      24B2     2.163795    24B1     2.163795    25B1     2.233718
      25B2     2.233718    40A1     2.236261    13A2     2.236261
      26B2     2.278736    26B1     2.278736    41A1     2.298333
      42A1     2.404652    27B1     2.461745    27B2     2.461745
      14A2     2.526325    43A1     2.526325    44A1     2.542799
      45A1     2.552925    15A2     2.552925    28B1     2.626785
      28B2     2.626785    29B1     2.630316    29B2     2.630316
      16A2     2.646718    46A1     2.646718    47A1     2.699553
      30B1     2.715231    30B2     2.715231    31B1     2.750131
      31B2     2.750131    48A1     2.843593    17A2     2.843593
      49A1     2.911242    50A1     2.995027    18A2     2.995027
      32B1     3.028377    32B2     3.028377    51A1     3.102930
      19A2     3.286231    52A1     3.286231    53A1     3.367790
      33B1     3.419838    33B2     3.419838    34B1     3.470356
      34B2     3.470356    35B1     3.794161    35B2     3.794161
      54A1     3.952289    36B1     4.077242    36B2     4.077242
      37B2     4.153163    37B1     4.153163    55A1     4.269306
      20A2     4.269306    56A1     4.397598    21A2     4.724229
      57A1     4.724229    38B1     4.868636    38B2     4.868636
      58A1     4.936500    22A2     4.936500    59A1     4.940772
      23A2     4.940772    39B1     4.968957    39B2     4.968957
      40B2     4.974232    40B1     4.974232    24A2     5.000000
      60A1     5.000000    61A1     5.004962    41B2     5.054865
      41B1     5.054865    62A1     5.144296    42B2     5.222571
      42B1     5.222571    25A2     5.346655    63A1     5.346655
      64A1     5.361987    43B1     5.545440    43B2     5.545440
      26A2     5.550462    65A1     5.550462    66A1     5.613785
      27A2     5.718454    67A1     5.718454    44B1     5.759542
      44B2     5.759542    45B1     5.825395    45B2     5.825395
      68A1     5.842033    28A2     5.842033    69A1     5.858489
      46B1     5.891020    46B2     5.891020    70A1     5.905563
      47B1     5.955090    47B2     5.955090    48B1     6.150988
      48B2     6.150988    49B1     6.256176    49B2     6.256176
      71A1     6.334163    29A2     6.334163    72A1     6.351690
      30A2     6.351690    73A1     6.811599    31A2     6.876601
      74A1     6.876601    50B1     6.878261    50B2     6.878261
      51B1     6.946088    51B2     6.946088    52B1     7.109658
      52B2     7.109658    75A1     7.219576    32A2     7.219576
      33A2     7.462953    76A1     7.462953    53B1     7.478988
      53B2     7.478988    77A1     7.495863    78A1     7.971188
      79A1     8.023945    34A2     8.023945    54B1     8.073246
      54B2     8.073246    80A1     8.350311    55B1     8.428585
      55B2     8.428585    81A1     8.685506    35A2     9.028613
      82A1     9.028613    56B2     9.454530    56B1     9.454530
      57B1     9.463592    57B2     9.463592    83A1     9.648944
      36A2     9.670439    84A1     9.670439    85A1    10.341565
      37A2    10.341565    58B1    10.393504    58B2    10.393504
      59B2    10.457173    59B1    10.457173    60B2    10.701339
      60B1    10.701339    38A2    10.767892    86A1    10.767892
      87A1    10.835854    61B2    10.861331    61B1    10.861331
      88A1    10.952946    39A2    10.952946    62B1    11.100076
      62B2    11.100076    89A1    11.246171    63B2    11.313870
      63B1    11.313870    40A2    11.391067    90A1    11.391067
      91A1    11.924275    92A1    12.026418    41A2    12.026418
      42A2    12.067311    93A1    12.067311    64B2    12.158348
      64B1    12.158348    65B1    12.190385    65B2    12.190385
      94A1    12.277587    66B1    12.525632    66B2    12.525632
      95A1    12.687732    43A2    12.687732    96A1    13.021339
      44A2    13.021339    67B1    13.079037    67B2    13.079037
      68B2    13.132589    68B1    13.132589    97A1    13.457038
      45A2    13.491065    98A1    13.491065    99A1    13.591054
      69B1    14.044744    69B2    14.044744    70B1    14.163495
      70B2    14.163495   100A1    14.172500    46A2    14.172500
      47A2    14.213386   101A1    14.213386    71B1    14.270192
      71B2    14.270192    72B1    14.568723    72B2    14.568723
     102A1    14.666940    48A2    14.671311   103A1    14.671311
      73B1    14.846322    73B2    14.846322   104A1    15.051150
      74B1    15.509385    74B2    15.509385    75B1    15.711214
      75B2    15.711214    49A2    15.781152   105A1    15.781152
     106A1    16.092601    76B1    16.167492    76B2    16.167492
     107A1    16.347046    50A2    16.347046    51A2    17.162941
     108A1    17.162941    77B1    17.173614    77B2    17.173614
     109A1    17.594565    78B1    17.931358    78B2    17.931358
     110A1    18.467060    52A2    18.618675   111A1    18.618675
      79B1    20.039842    79B2    20.039842    53A2    20.092086
     112A1    20.092086   113A1    20.701708    80B1    21.242672
      80B2    21.242672   114A1    22.166752    54A2    22.314071
     115A1    22.314071    81B2    22.505650    81B1    22.505650
      55A2    23.001344   116A1    23.001344    82B1    23.220011
      82B2    23.220011   117A1    23.646243    56A2    23.836533
     118A1    23.836533    83B1    23.858991    83B2    23.858991
      84B2    24.463542    84B1    24.463542   119A1    25.201270
      85B1    26.406633    85B2    26.406633   120A1    26.640460
      57A2    26.640460   121A1    26.763173    86B1    26.993809
      86B2    26.993809    58A2    27.058271   122A1    27.058271
      87B2    27.339044    87B1    27.339044   123A1    27.415204
      88B1    28.447375    88B2    28.447375    59A2    29.989030
     124A1    29.989030   125A1    31.135294    60A2    31.135294
      89B2    31.598494    89B1    31.598494    90B1    31.883970
      90B2    31.883970   126A1    32.085556   127A1    32.297439
      61A2    32.297439    91B2    33.122710    91B1    33.122710
     128A1    33.275414    62A2    34.945331   129A1    34.945331
      92B2    36.930272    92B1    36.930272   130A1    37.747410
     131A1    60.331997   132A1   105.413045

    Beta Occupied:

       1A1   -21.101304     2A1   -11.799960     3A1    -1.926559
       4A1    -1.165017     1B2    -1.060321     1B1    -1.060321

    Beta Virtual:

       5A1    -0.404184     2B1    -0.178310     2B2    -0.178310
       6A1    -0.107894     7A1    -0.090045     3B1    -0.078961
       3B2    -0.078961     8A1    -0.037335     4B2    -0.031210
       4B1    -0.031210     1A2    -0.002989     9A1    -0.002989
      10A1     0.006349    11A1     0.034814     5B1     0.045799
       5B2     0.045799     6B2     0.066666     6B1     0.066666
      12A1     0.067107    13A1     0.165101    14A1     0.198246
       2A2     0.198246     7B2     0.211452     7B1     0.211452
      15A1     0.230356     8B1     0.249831     8B2     0.249831
       3A2     0.282430    16A1     0.282430     9B1     0.291381
       9B2     0.291381    17A1     0.308186    10B1     0.333047
      10B2     0.333047    18A1     0.334446    19A1     0.348567
      20A1     0.382176     4A2     0.382176    11B1     0.419037
      11B2     0.419037    21A1     0.560993    22A1     0.616574
      12B1     0.648253    12B2     0.648253    13B1     0.672547
      13B2     0.672547    23A1     0.724258     5A2     0.724258
      24A1     0.750225    14B2     0.760021    14B1     0.760021
      25A1     0.854133    26A1     0.896331    27A1     0.906191
       6A2     0.906191    15B2     0.922642    15B1     0.922642
      28A1     0.968454     7A2     0.968454    16B1     1.021228
      16B2     1.021228    29A1     1.061869     8A2     1.061869
      30A1     1.095933    17B1     1.097377    17B2     1.097377
      31A1     1.112572     9A2     1.112572    18B1     1.113620
      18B2     1.113620    19B1     1.135985    19B2     1.135985
      32A1     1.196866    33A1     1.383531    34A1     1.432242
      20B1     1.472465    20B2     1.472465    21B1     1.505317
      21B2     1.505317    35A1     1.532423    10A2     1.532423
      36A1     1.656221    11A2     1.868495    37A1     1.868495
      22B1     1.942308    22B2     1.942308    23B1     1.977028
      23B2     1.977028    38A1     2.096194    12A2     2.096194
      39A1     2.098275    24B2     2.176176    24B1     2.176176
      40A1     2.210062    13A2     2.210062    25B1     2.234194
      25B2     2.234194    26B2     2.283456    26B1     2.283456
      41A1     2.341856    42A1     2.413679    27B2     2.453165
      27B1     2.453165    14A2     2.530876    43A1     2.530876
      44A1     2.559747    45A1     2.575013    15A2     2.575013
      28B2     2.626734    28B1     2.626734    29B1     2.645679
      29B2     2.645679    16A2     2.661823    46A1     2.661823
      47A1     2.711368    30B1     2.739966    30B2     2.739966
      31B1     2.760566    31B2     2.760566    48A1     2.858399
      17A2     2.858399    49A1     2.912289    50A1     3.022743
      18A2     3.022743    32B1     3.036303    32B2     3.036303
      51A1     3.117672    19A2     3.306222    52A1     3.306222
      53A1     3.413331    33B1     3.427219    33B2     3.427219
      34B1     3.495156    34B2     3.495156    35B1     3.812594
      35B2     3.812594    54A1     3.971321    36B1     4.099665
      36B2     4.099665    37B2     4.152006    37B1     4.152006
      55A1     4.262388    20A2     4.262388    56A1     4.413397
      21A2     4.724762    57A1     4.724762    38B1     4.863375
      38B2     4.863375    58A1     4.942258    22A2     4.942258
      59A1     4.944049    23A2     4.944049    39B1     4.953560
      39B2     4.953560    40B2     4.978205    40B1     4.978205
      60A1     4.992453    24A2     4.992453    61A1     5.022027
      41B2     5.053478    41B1     5.053478    62A1     5.156707
      42B2     5.228948    42B1     5.228948    25A2     5.329546
      63A1     5.329546    64A1     5.368480    43B2     5.551235
      43B1     5.551235    26A2     5.551461    65A1     5.551461
      66A1     5.625510    27A2     5.732481    67A1     5.732481
      44B2     5.774722    44B1     5.774722    45B1     5.841388
      45B2     5.841388    68A1     5.852853    28A2     5.852853
      69A1     5.867290    46B1     5.904606    46B2     5.904606
      70A1     5.913920    47B1     5.955169    47B2     5.955169
      48B2     6.156480    48B1     6.156480    49B1     6.293159
      49B2     6.293159    71A1     6.356217    29A2     6.356217
      72A1     6.365242    30A2     6.365242    73A1     6.834875
      50B1     6.900838    50B2     6.900839    74A1     6.904159
      31A2     6.904159    51B1     6.966195    51B2     6.966195
      52B2     7.108820    52B1     7.108820    75A1     7.232920
      32A2     7.232920    33A2     7.473894    76A1     7.473894
      53B1     7.486359    53B2     7.486359    77A1     7.507290
      78A1     7.986336    79A1     8.033208    34A2     8.033208
      54B1     8.075016    54B2     8.075016    80A1     8.351914
      55B1     8.438533    55B2     8.438533    81A1     8.710013
      35A2     9.023491    82A1     9.023491    56B2     9.451645
      56B1     9.451645    57B2     9.464236    57B1     9.464236
      83A1     9.651700    36A2     9.677983    84A1     9.677983
      85A1    10.340780    37A2    10.340780    58B2    10.404651
      58B1    10.404651    59B2    10.446259    59B1    10.446259
      60B2    10.699816    60B1    10.699816    38A2    10.761916
      86A1    10.761916    87A1    10.848294    61B2    10.865276
      61B1    10.865276    39A2    10.951799    88A1    10.951799
      62B1    11.094424    62B2    11.094424    89A1    11.259297
      63B2    11.315988    63B1    11.315988    40A2    11.388687
      90A1    11.388687    91A1    11.943188    92A1    12.042626
      41A2    12.042626    42A2    12.082356    93A1    12.082356
      64B1    12.170322    64B2    12.170322    65B2    12.174042
      65B1    12.174042    94A1    12.285095    66B1    12.533760
      66B2    12.533760    95A1    12.673362    43A2    12.673362
      96A1    13.028298    44A2    13.028298    67B1    13.097777
      67B2    13.097777    68B2    13.147505    68B1    13.147505
      97A1    13.460498    45A2    13.490989    98A1    13.490989
      99A1    13.600925    69B1    14.067649    69B2    14.067649
      70B1    14.170460    70B2    14.170460   100A1    14.194360
      46A2    14.194360    47A2    14.195112   101A1    14.195112
      71B1    14.283958    71B2    14.283958    72B1    14.585068
      72B2    14.585068   102A1    14.673432    48A2    14.691223
     103A1    14.691223    73B2    14.852596    73B1    14.852596
     104A1    15.075604    74B1    15.521989    74B2    15.521989
      75B2    15.715411    75B1    15.715411    49A2    15.766746
     105A1    15.766746   106A1    16.097710    76B1    16.176120
      76B2    16.176120   107A1    16.373094    50A2    16.373094
      51A2    17.184996   108A1    17.184996    77B1    17.197136
      77B2    17.197136   109A1    17.612224    78B1    17.945098
      78B2    17.945098   110A1    18.481901    52A2    18.631844
     111A1    18.631844    79B2    20.042109    79B1    20.042109
      53A2    20.110583   112A1    20.110583   113A1    20.708722
      80B1    21.258696    80B2    21.258696   114A1    22.173676
      54A2    22.300455   115A1    22.300455    81B2    22.494908
      81B1    22.494908    55A2    22.993187   116A1    22.993187
      82B1    23.214126    82B2    23.214126   117A1    23.639631
      56A2    23.833163   118A1    23.833163    83B2    23.841326
      83B1    23.841326    84B2    24.461510    84B1    24.461510
     119A1    25.207163    85B2    26.385984    85B1    26.385984
     120A1    26.624513    57A2    26.624513   121A1    26.753540
      86B2    26.981295    86B1    26.981295    58A2    27.048698
     122A1    27.048698    87B2    27.332366    87B1    27.332366
     123A1    27.409755    88B1    28.418427    88B2    28.418427
      59A2    29.971143   124A1    29.971143    60A2    31.109655
     125A1    31.109655    89B2    31.586594    89B1    31.586594
      90B1    31.865410    90B2    31.865410   126A1    32.078225
      61A2    32.283212   127A1    32.283212    91B2    33.111485
      91B1    33.111485   128A1    33.267684    62A2    34.920805
     129A1    34.920805    92B2    36.919161    92B1    36.919161
     130A1    37.741357   131A1    60.357134   132A1   105.405846

    Final Occupation by Irrep:
             A1    A2    B1    B2
    DOCC [     4,    0,    1,    1 ]
    SOCC [     1,    0,    0,    0 ]

  Energy converged.

  @UHF Final Energy:  -112.31063429786244

   => Energetics <=

    Nuclear Repulsion Energy =             22.4983235166307836
    One-Electron Energy =                -192.4222929155990300
    Two-Electron Energy =                  57.6133351011057897
    Total Energy =                       -112.3106342978624497

  UHF NO Occupations:
  HONO-2 :    1 B1 1.9331208
  HONO-1 :    1 B2 1.9331201
  HONO-0 :    5 A1 1.0000000
  LUNO+0 :    2 B2 0.0668799
  LUNO+1 :    2 B1 0.0668792
  LUNO+2 :    6 A1 0.0007761
  LUNO+3 :    7 A1 0.0002160

Properties will be evaluated at   0.000000,   0.000000,   0.000000 Bohr

Properties computed using the SCF density matrix

  Nuclear Dipole Moment: (a.u.)
     X:     0.0000      Y:     0.0000      Z:    -0.0023

  Electronic Dipole Moment: (a.u.)
     X:     0.0000      Y:     0.0000      Z:     1.2006

  Dipole Moment: (a.u.)
     X:     0.0000      Y:     0.0000      Z:     1.1983     Total:     1.1983

  Dipole Moment: (Debye)
     X:     0.0000      Y:     0.0000      Z:     3.0457     Total:     3.0457

*** tstop() called on n412-050.vsc4.prov at Fri Oct 30 11:59:21 2020
Module time:
	user time   =    1264.90 seconds =      21.08 minutes
	system time =     122.40 seconds =       2.04 minutes
	total time  =       1378 seconds =      22.97 minutes
Total time:
	user time   =    1264.90 seconds =      21.08 minutes
	system time =     122.40 seconds =       2.04 minutes
	total time  =       1378 seconds =      22.97 minutes

*** tstart() called on n412-050.vsc4.prov
*** at Fri Oct 30 11:59:21 2020

	Wfn Parameters:
	--------------------
	Wavefunction         = CCSD
	Number of irreps     = 4
	Number of MOs        = 378
	Number of active MOs = 376
	AO-Basis             = NONE
	Semicanonical        = false
	Reference            = UHF
	Print Level          = 1

	IRREP	# MOs	# FZDC	# DOCC	# SOCC	# VIRT	# FZVR
	-----	-----	------	------	------	------	------
	 A1	   132	    2	    2	    1	    127	    0
	 A2	   62	    0	    0	    0	    62	    0
	 B1	   92	    0	    1	    0	    91	    0
	 B2	   92	    0	    1	    0	    91	    0
	Transforming integrals...
	IWL integrals will be deleted.
	(OO|OO)...
	Presorting SO-basis two-electron integrals.
	Sorting File: SO Ints (nn|nn) nbuckets = 1
	Transforming the one-electron integrals and constructing Fock matrices
	Starting AA/AB first half-transformation.
	Sorting AA/AB half-transformed integrals.
	Starting BB first half-transformation.
	Sorting BB half-transformed integrals.
	First half integral transformation complete.
	Starting AA second half-transformation.
	Starting AB second half-transformation.
	Starting BB second half-transformation.
	Two-electron integral transformation complete.
	(OO|OV)...
	Starting AA second half-transformation.
	Starting AB second half-transformation.
	Starting BB second half-transformation.
	Two-electron integral transformation complete.
	(OO|VV)...
	Starting AA second half-transformation.
	Starting AB second half-transformation.
	Starting BB second half-transformation.
	Two-electron integral transformation complete.
	(OV|OO)...
	Starting AA/AB first half-transformation.
	Sorting AA/AB half-transformed integrals.
	Starting BB first half-transformation.
	Sorting BB half-transformed integrals.
	First half integral transformation complete.
	Starting AA second half-transformation.
	Starting AB second half-transformation.
	Starting BB second half-transformation.
	Two-electron integral transformation complete.
	(OV|OV)...
	Starting AA second half-transformation.
	Starting AB second half-transformation.
	Starting BB second half-transformation.
	Two-electron integral transformation complete.
	(OV|VV)...
	Starting AA second half-transformation.
	Starting AB second half-transformation.
	Starting BB second half-transformation.
	Two-electron integral transformation complete.
	(VV|OO)...
	Starting AA/AB first half-transformation.
	Sorting AA/AB half-transformed integrals.
	Starting BB first half-transformation.
	Sorting BB half-transformed integrals.
	First half integral transformation complete.
	Starting AA second half-transformation.
	Starting AB second half-transformation.
	Starting BB second half-transformation.
	Two-electron integral transformation complete.
	(VV|OV)...

      * MP2 total energy                      = -112.655831062620322
      * CCSD total energy                     = -112.667246137429075
*** Psi4 exiting successfully. Buy a developer a beer!
