                               Psi4 1.4a3.dev88

  ==> Input File <==

--------------------------------------------------------------------------
# Any line starting with the # character is a comment line
memory 250000 mb
molecule molecule{
0 1
N          0.0000000000        0.0000000000       -0.5570422157
N          0.0000000000        0.0000000000        0.5570422157
}

set {
  reference rhf
  basis aug-cc-pV(d+d)Z
  scf_type OUT_OF_CORE
  freeze_core true
}

energy('ccsd(t)')
--------------------------------------------------------------------------

    Molecular point group: d2h

    Geometry (in Angstrom), charge = 0, multiplicity = 1:

       Center              X                  Y                   Z               Mass
    ------------   -----------------  -----------------  -----------------  -----------------
         N            0.000000000000     0.000000000000    -0.557042215700    14.003074004430
         N            0.000000000000     0.000000000000     0.557042215700    14.003074004430

  Charge       = 0
  Multiplicity = 1
  Basis Set: AUG-CC-PV(D+D)Z
    Blend: AUG-CC-PV(D+D)Z

    Orbital Energies [Eh]
    ---------------------

    Doubly Occupied:

       1Ag   -15.703718     1B1u  -15.700603     2Ag    -1.467274
       2B1u   -0.786530     3Ag    -0.633020     1B2u   -0.608527
       1B3u   -0.608527

  @RHF Final Energy:  -108.95773614079314

   => Energetics <=

    Nuclear Repulsion Energy =             23.2744328813982229
    One-Electron Energy =                -193.4479394873644083
    Two-Electron Energy =                  61.2157704651730512
    Total Energy =                       -108.9577361407931448

  Dipole Moment: [D]
     X:     0.0000      Y:     0.0000      Z:    -0.0000     Total:     0.0000

      * MP2 total energy                      = -109.279928681399070
      * CCSD total energy                     = -109.281236226062262
      * CCSD(T) total energy                  = -109.295309426854075
*** Psi4 exiting successfully. Buy a developer a beer!
