                               Psi4 1.4a3.dev88

  ==> Input File <==

--------------------------------------------------------------------------
# Any line starting with the # character is a comment line
memory 250000 mb
molecule molecule{
0 3
S          0.0000000000        0.0000000000        0.0000000000
}

set {
  reference uhf
  basis aug-cc-pV(6+d)Z
  scf_type OUT_OF_CORE
  freeze_core true
}

energy('ccsd(t)')
--------------------------------------------------------------------------

    Molecular point group: d2h
    Geometry (in Angstrom), charge = 0, multiplicity = 3:

       Center              X                  Y                   Z               Mass
    ------------   -----------------  -----------------  -----------------  -----------------
         S            0.000000000000     0.000000000000     0.000000000000    31.972071174400

  Charge       = 0
  Multiplicity = 3
  Basis Set: AUG-CC-PV(6+D)Z
    Blend: AUG-CC-PV(6+D)Z

    Orbital Energies [Eh]
    ---------------------

    Alpha Occupied:

       1Ag   -92.013168     2Ag    -9.012735     1B1u   -6.706003
       1B3u   -6.706003     1B2u   -6.685596     3Ag    -0.989826
       2B3u   -0.486973     2B1u   -0.486973     2B2u   -0.415560

    Alpha Virtual:

       3B3u    0.060679     3B1u    0.060679     3B2u    0.065252
       4Ag     0.066978     1B2g    0.164547     5Ag     0.164547
       1B3g    0.173301     1B1g    0.173301     6Ag     0.176602
       4B3u    0.264102     4B1u    0.264102     4B2u    0.279930
       7Ag     0.378431     8Ag     0.411611     2B2g    0.411611
       5B1u    0.418075     5B3u    0.418075     1Au     0.425271
       5B2u    0.425271     6B3u    0.429836     6B1u    0.429836
       6B2u    0.431418     2B1g    0.439386     2B3g    0.439386
       9Ag     0.450419     3B2g    0.846623    10Ag     0.846623
       3B1g    0.854526     3B3g    0.854526     7B3u    0.856744
       7B1u    0.856744     4B2g    0.860282    11Ag     0.860282
       4B1g    0.863825     4B3g    0.863825    12Ag     0.865027
       7B2u    0.890136    13Ag     1.007230     5B2g    1.007230
       5B1g    1.038399     5B3g    1.038399    14Ag     1.050344
       8B3u    1.094305     8B1u    1.094305     8B2u    1.113264
       2Au     1.113264     9B1u    1.125295     9B3u    1.125295
       9B2u    1.129469    15Ag     1.347961    10B1u    1.922100
      10B3u    1.922100    10B2u    1.933218     3Au     1.933218
      11B1u    1.942079    11B3u    1.942079     4Au     1.948532
      11B2u    1.948532    12B3u    1.952455    12B1u    1.952455
      12B2u    1.953771     6B2g    2.060087    16Ag     2.060087
       6B1g    2.077273     6B3g    2.077273    17Ag     2.089587
       7B2g    2.089587     7B3g    2.097039     7B1g    2.097039
      18Ag     2.099541    19Ag     2.350670     8B2g    2.350670
       8B1g    2.382292     8B3g    2.382292    13B1u    2.383893
      13B3u    2.383893    20Ag     2.394028    13B2u    2.412333
       5Au     2.412333    14B3u    2.428065    14B1u    2.428065
      14B2u    2.434617    15B3u    2.467453    15B1u    2.467453
      15B2u    2.513457    21Ag     4.057063     9B2g    4.057063
      22Ag     4.064102     9B3g    4.071264     9B1g    4.071264
      10B2g    4.083031    23Ag     4.083031    10B3g    4.092282
      10B1g    4.092282    24Ag     4.098946    11B2g    4.098946
      11B3g    4.102967    11B1g    4.102967    25Ag     4.104311
      12B2g    4.288672    26Ag     4.288672    12B3g    4.313238
      12B1g    4.313238    27Ag     4.330890    13B2g    4.330890
      13B3g    4.341530    13B1g    4.341530    16B1u    4.344650
      16B3u    4.344650    28Ag     4.345088    16B2u    4.363667
       6Au     4.363667    17B1u    4.378756    17B3u    4.378756
      17B2u    4.389703     7Au     4.389703    18B1u    4.396342
      18B3u    4.396342    18B2u    4.398567    29Ag     5.057805
      14B2g    5.057805    19B1u    5.060229    19B3u    5.060229
      19B2u    5.089857     8Au     5.089857    14B3g    5.090049
      14B1g    5.090049    30Ag     5.102059    20B1u    5.108104
      20B3u    5.108104    20B2u    5.114277    21B1u    6.978753
      21B3u    6.978753    21B2u    7.020094    15B2g    8.609476
      31Ag     8.609476    15B3g    8.633495    15B1g    8.633495
      32Ag     8.650811    16B2g    8.650811    16B3g    8.661265
      16B1g    8.661265    33Ag     8.664759    34Ag     8.830827
      17B2g    8.830827    17B3g    8.849911    17B1g    8.849911
      35Ag     8.865826    18B2g    8.865826    18B1g    8.878405
      18B3g    8.878405    19B2g    8.887504    36Ag     8.887504
      19B3g    8.893012    19B1g    8.893012    37Ag     8.894856
      22B1u    9.223198    22B3u    9.223198     9Au     9.245138
      22B2u    9.245138    23B1u    9.262458    23B3u    9.262458
      23B2u    9.274970    10Au     9.274970    24B1u    9.282535
      24B3u    9.282535    24B2u    9.285066    38Ag    10.618284
      20B2g   10.618284    20B3g   10.645406    20B1g   10.645406
      39Ag    10.654513    25B1u   10.716526    25B3u   10.716526
      25B2u   10.739543    11Au    10.739543    26B1u   10.753674
      26B3u   10.753674    26B2u   10.758444    40Ag    12.303094
      27B1u   29.445843    27B3u   29.445843    27B2u   29.468698
      41Ag    30.639644    21B2g   30.639644    21B3g   30.655462
      21B1g   30.655462    42Ag    30.660828    43Ag   242.976892

    Beta Occupied:

       1Ag   -91.993967     2Ag    -8.994064     1B2u   -6.675434
       1B3u   -6.658747     1B1u   -6.658747     3Ag    -0.773882
       2B2u   -0.379587

    Beta Virtual:

       2B1u    0.000836     2B3u    0.000836     3B2u    0.065963
       4Ag     0.073155     3B1u    0.076557     3B3u    0.076557
       5Ag     0.179492     1B2g    0.179492     1B1g    0.180536
       1B3g    0.180536     6Ag     0.181152     4B2u    0.284383
       4B1u    0.304618     4B3u    0.304618     7Ag     0.400942
       5B1u    0.424647     5B3u    0.424647     5B2u    0.429411
       1Au     0.429411     6B3u    0.432386     6B1u    0.432386
       6B2u    0.433358     8Ag     0.483858     2B3g    0.487963
       2B1g    0.487963     2B2g    0.504328     9Ag     0.504328
       3B2g    0.853175    10Ag     0.853175     3B1g    0.859255
       3B3g    0.859255    11Ag     0.863578     4B2g    0.863578
       4B1g    0.866143     4B3g    0.866143    12Ag     0.866992
       7B2u    0.900512     7B1u    0.916364     7B3u    0.916364
      13Ag     1.080625     5B3g    1.082586     5B1g    1.082586
       5B2g    1.090026    14Ag     1.090026     8B1u    1.133437
       8B3u    1.133437     2Au     1.139375     8B2u    1.139375
       9B1u    1.142918     9B3u    1.142918     9B2u    1.144066
      15Ag     1.383961    10B1u    1.933987    10B3u    1.933987
      10B2u    1.942530     3Au     1.942530    11B1u    1.949244
      11B3u    1.949244    11B2u    1.954076     4Au     1.954076
      12B3u    1.956989    12B1u    1.956989    12B2u    1.957962
       6B2g    2.088319    16Ag     2.088319     6B1g    2.098297
       6B3g    2.098297     7B2g    2.105309    17Ag     2.105309
       7B3g    2.109472     7B1g    2.109472    18Ag     2.110852
       8B2g    2.390199    19Ag     2.390199     8B3g    2.403710
       8B1g    2.403710    20Ag     2.408185    13B1u    2.446239
      13B3u    2.446239     5Au     2.454701    13B2u    2.454701
      14B1u    2.459045    14B3u    2.459045    14B2u    2.460348
      15B1u    2.524190    15B3u    2.524190    15B2u    2.525741
      21Ag     4.075239     9B2g    4.075239     9B3g    4.086209
       9B1g    4.086209    22Ag     4.095275    10B2g    4.095275
      23Ag     4.096226    10B3g    4.102384    10B1g    4.102384
      11B2g    4.107494    24Ag     4.107494    11B3g    4.110572
      11B1g    4.110572    25Ag     4.111600    12B2g    4.332558
      26Ag     4.332558    12B3g    4.346175    12B1g    4.346175
      13B2g    4.355888    27Ag     4.355888    13B3g    4.361711
      13B1g    4.361711    28Ag     4.363652    16B1u    4.374502
      16B3u    4.374502    16B2u    4.387364     6Au     4.387364
      17B1u    4.397465    17B3u    4.397465     7Au     4.404731
      17B2u    4.404731    18B1u    4.409111    18B3u    4.409111
      18B2u    4.410574    14B2g    5.085897    29Ag     5.085897
      19B1u    5.105511    19B3u    5.105511    14B3g    5.105526
      14B1g    5.105526    30Ag     5.112440     8Au     5.120684
      19B2u    5.120684    20B1u    5.129879    20B3u    5.129879
      20B2u    5.132957    21B1u    7.019089    21B3u    7.019089
      21B2u    7.029495    15B2g    8.642606    31Ag     8.642606
      15B3g    8.658451    15B1g    8.658451    16B2g    8.669865
      32Ag     8.669865    16B3g    8.676751    16B1g    8.676751
      33Ag     8.679052    34Ag     8.859242    17B2g    8.859242
      17B3g    8.873409    17B1g    8.873409    18B2g    8.885163
      35Ag     8.885163    18B1g    8.894410    18B3g    8.894410
      19B2g    8.901071    36Ag     8.901071    19B3g    8.905092
      19B1g    8.905092    37Ag     8.906436    22B1u    9.256506
      22B3u    9.256506     9Au     9.271661    22B2u    9.271661
      23B1u    9.283586    23B3u    9.283586    10Au     9.292177
      23B2u    9.292177    24B1u    9.297361    24B3u    9.297361
      24B2u    9.299094    20B2g   10.642267    38Ag    10.642267
      20B3g   10.659049    20B1g   10.659049    39Ag    10.664643
      25B1u   10.733298    25B3u   10.733298    11Au    10.750857
      25B2u   10.750857    26B1u   10.761573    26B3u   10.761573
      26B2u   10.765176    40Ag    12.322632    27B1u   29.474689
      27B3u   29.474689    27B2u   29.475777    41Ag    30.667006
      21B2g   30.667006    21B3g   30.671683    21B1g   30.671683
      42Ag    30.673303    43Ag   242.983953

    Final Occupation by Irrep:
             Ag   B1g   B2g   B3g    Au   B1u   B2u   B3u
    DOCC [     3,    0,    0,    0,    0,    1,    2,    1 ]
    SOCC [     0,    0,    0,    0,    0,    1,    0,    1 ]

  @UHF Final Energy:  -397.51335640771839

   => Energetics <=

    Nuclear Repulsion Energy =              0.0000000000000000
    One-Electron Energy =                -549.3894492996707868
    Two-Electron Energy =                 151.8760928919523678
    Total Energy =                       -397.5133564077184474

  UHF NO Occupations:
  HONO-2 :    3 Ag 1.9941617
  HONO-1 :    2B3u 1.0000000
  HONO-0 :    2B1u 1.0000000
  LUNO+0 :    4 Ag 0.0058383
  LUNO+1 :    3B2u 0.0009643
  LUNO+2 :    3B1u 0.0000054
  LUNO+3 :    3B3u 0.0000054

Computation Completed

Properties will be evaluated at   0.000000,   0.000000,   0.000000 [a0]

Properties computed using the SCF density matrix

  Nuclear Dipole Moment: [e a0]
     X:     0.0000      Y:     0.0000      Z:     0.0000

  Electronic Dipole Moment: [e a0]
     X:     0.0000      Y:     0.0000      Z:     0.0000

  Dipole Moment: [e a0]
     X:     0.0000      Y:     0.0000      Z:     0.0000     Total:     0.0000

  Dipole Moment: [D]
     X:     0.0000      Y:     0.0000      Z:     0.0000     Total:     0.0000

*** tstop() called on n411-011.vsc4.prov at Thu Jan 21 14:00:45 2021
Module time:
	user time   =     133.99 seconds =       2.23 minutes
	system time =       4.86 seconds =       0.08 minutes
	total time  =        125 seconds =       2.08 minutes
Total time:
	user time   =     133.99 seconds =       2.23 minutes
	system time =       4.86 seconds =       0.08 minutes
	total time  =        125 seconds =       2.08 minutes

*** tstart() called on n411-011.vsc4.prov
*** at Thu Jan 21 14:00:45 2021

	Wfn Parameters:
	--------------------
	Wavefunction         = CCSD_T
	Number of irreps     = 8
	Number of MOs        = 198
	Number of active MOs = 193
	AO-Basis             = NONE
	Semicanonical        = false
	Reference            = UHF
	Print Level          = 1

	IRREP	# MOs	# FZDC	# DOCC	# SOCC	# VIRT	# FZVR
	-----	-----	------	------	------	------	------
	 Ag	   43	    2	    1	    0	    40	    0
	 B1g	   21	    0	    0	    0	    21	    0
	 B2g	   21	    0	    0	    0	    21	    0
	 B3g	   21	    0	    0	    0	    21	    0
	 Au	   11	    0	    0	    0	    11	    0
	 B1u	   27	    1	    0	    1	    25	    0
	 B2u	   27	    1	    1	    0	    25	    0
	 B3u	   27	    1	    0	    1	    25	    0
	Transforming integrals...
	IWL integrals will be deleted.
	(OO|OO)...
	Presorting SO-basis two-electron integrals.
	Sorting File: SO Ints (nn|nn) nbuckets = 1
	Constructing frozen core operators
	Starting AA/AB first half-transformation.
	Sorting AA/AB half-transformed integrals.
	Starting BB first half-transformation.
	Sorting BB half-transformed integrals.
	First half integral transformation complete.
	Starting AA second half-transformation.
	Starting AB second half-transformation.
	Starting BB second half-transformation.
	Two-electron integral transformation complete.
	(OO|OV)...
	Starting AA second half-transformation.
	Starting AB second half-transformation.
	Starting BB second half-transformation.
	Two-electron integral transformation complete.
	(OO|VV)...
	Starting AA second half-transformation.
	Starting AB second half-transformation.
	Starting BB second half-transformation.
	Two-electron integral transformation complete.
	(OV|OO)...
	Starting AA/AB first half-transformation.
	Sorting AA/AB half-transformed integrals.
	Starting BB first half-transformation.
	Sorting BB half-transformed integrals.
	First half integral transformation complete.
	Starting AA second half-transformation.
	Starting AB second half-transformation.
	Starting BB second half-transformation.
	Two-electron integral transformation complete.
	(OV|OV)...
	Starting AA second half-transformation.
	Starting AB second half-transformation.
	Starting BB second half-transformation.
	Two-electron integral transformation complete.
	(OV|VV)...
	Starting AA second half-transformation.
	Starting AB second half-transformation.
	Starting BB second half-transformation.
	Two-electron integral transformation complete.
	(VV|OO)...
	Starting AA/AB first half-transformation.
	Sorting AA/AB half-transformed integrals.
	Starting BB first half-transformation.
	Sorting BB half-transformed integrals.
	First half integral transformation complete.
	Starting AA second half-transformation.
	Starting AB second half-transformation.
	Starting BB second half-transformation.
	Two-electron integral transformation complete.
	(VV|OV)...
	Starting AA second half-transformation.
	Starting AB second half-transformation.
	Starting BB second half-transformation.
	Two-electron integral transformation complete.
	(VV|VV)...
	Starting AA second half-transformation.
	Starting AB second half-transformation.
	Starting BB second half-transformation.
	Two-electron integral transformation complete.
	Frozen core energy     =   -387.55318460856176

	Size of irrep 0 of <AB|CD> integrals:      5.593 (MW) /     44.746 (MB)
	Size of irrep 1 of <AB|CD> integrals:      4.757 (MW) /     38.054 (MB)
	Size of irrep 2 of <AB|CD> integrals:      4.757 (MW) /     38.054 (MB)
	Size of irrep 3 of <AB|CD> integrals:      4.757 (MW) /     38.054 (MB)
	Size of irrep 4 of <AB|CD> integrals:      4.060 (MW) /     32.482 (MB)
	Size of irrep 5 of <AB|CD> integrals:      5.203 (MW) /     41.624 (MB)
	Size of irrep 6 of <AB|CD> integrals:      5.203 (MW) /     41.624 (MB)
	Size of irrep 7 of <AB|CD> integrals:      5.203 (MW) /     41.624 (MB)
	Total:                                    39.533 (MW) /    316.261 (MB)

	Size of irrep 0 of <ab|cd> integrals:      5.832 (MW) /     46.658 (MB)
	Size of irrep 1 of <ab|cd> integrals:      4.915 (MW) /     39.321 (MB)
	Size of irrep 2 of <ab|cd> integrals:      4.982 (MW) /     39.855 (MB)
	Size of irrep 3 of <ab|cd> integrals:      4.915 (MW) /     39.321 (MB)
	Size of irrep 4 of <ab|cd> integrals:      4.231 (MW) /     33.850 (MB)
	Size of irrep 5 of <ab|cd> integrals:      5.485 (MW) /     43.880 (MB)
	Size of irrep 6 of <ab|cd> integrals:      5.396 (MW) /     43.171 (MB)
	Size of irrep 7 of <ab|cd> integrals:      5.485 (MW) /     43.880 (MB)
	Total:                                    41.242 (MW) /    329.934 (MB)

	Size of irrep 0 of <Ab|Cd> integrals:     24.691 (MW) /    197.528 (MB)
	Size of irrep 1 of <Ab|Cd> integrals:     19.342 (MW) /    154.739 (MB)
	Size of irrep 2 of <Ab|Cd> integrals:     19.466 (MW) /    155.726 (MB)
	Size of irrep 3 of <Ab|Cd> integrals:     19.342 (MW) /    154.739 (MB)
	Size of irrep 4 of <Ab|Cd> integrals:     16.581 (MW) /    132.649 (MB)
	Size of irrep 5 of <Ab|Cd> integrals:     21.372 (MW) /    170.977 (MB)
	Size of irrep 6 of <Ab|Cd> integrals:     21.197 (MW) /    169.575 (MB)
	Size of irrep 7 of <Ab|Cd> integrals:     21.372 (MW) /    170.977 (MB)
	Total:                                   163.364 (MW) /   1306.910 (MB)

	Size of irrep 0 of <IA|BC> integrals:      0.566 (MW) /      4.525 (MB)
	Size of irrep 1 of <IA|BC> integrals:      0.358 (MW) /      2.861 (MB)
	Size of irrep 2 of <IA|BC> integrals:      0.358 (MW) /      2.861 (MB)
	Size of irrep 3 of <IA|BC> integrals:      0.358 (MW) /      2.861 (MB)
	Size of irrep 4 of <IA|BC> integrals:      0.298 (MW) /      2.386 (MB)
	Size of irrep 5 of <IA|BC> integrals:      0.488 (MW) /      3.905 (MB)
	Size of irrep 6 of <IA|BC> integrals:      0.488 (MW) /      3.905 (MB)
	Size of irrep 7 of <IA|BC> integrals:      0.488 (MW) /      3.905 (MB)
	Total:                                     3.401 (MW) /     27.211 (MB)

	Size of irrep 0 of <ia|bc> integrals:      0.326 (MW) /      2.611 (MB)
	Size of irrep 1 of <ia|bc> integrals:      0.208 (MW) /      1.667 (MB)
	Size of irrep 2 of <ia|bc> integrals:      0.143 (MW) /      1.143 (MB)
	Size of irrep 3 of <ia|bc> integrals:      0.208 (MW) /      1.667 (MB)
	Size of irrep 4 of <ia|bc> integrals:      0.132 (MW) /      1.053 (MB)
	Size of irrep 5 of <ia|bc> integrals:      0.220 (MW) /      1.761 (MB)
	Size of irrep 6 of <ia|bc> integrals:      0.302 (MW) /      2.416 (MB)
	Size of irrep 7 of <ia|bc> integrals:      0.220 (MW) /      1.761 (MB)
	Total:                                     1.760 (MW) /     14.080 (MB)

	Size of irrep 0 of <Ia|Bc> integrals:      0.581 (MW) /      4.651 (MB)
	Size of irrep 1 of <Ia|Bc> integrals:      0.365 (MW) /      2.920 (MB)
	Size of irrep 2 of <Ia|Bc> integrals:      0.371 (MW) /      2.965 (MB)
	Size of irrep 3 of <Ia|Bc> integrals:      0.365 (MW) /      2.920 (MB)
	Size of irrep 4 of <Ia|Bc> integrals:      0.301 (MW) /      2.411 (MB)
	Size of irrep 5 of <Ia|Bc> integrals:      0.499 (MW) /      3.994 (MB)
	Size of irrep 6 of <Ia|Bc> integrals:      0.493 (MW) /      3.941 (MB)
	Size of irrep 7 of <Ia|Bc> integrals:      0.499 (MW) /      3.994 (MB)
	Total:                                     3.475 (MW) /     27.797 (MB)

	Size of irrep 0 of <iA|bC> integrals:      0.323 (MW) /      2.584 (MB)
	Size of irrep 1 of <iA|bC> integrals:      0.202 (MW) /      1.618 (MB)
	Size of irrep 2 of <iA|bC> integrals:      0.141 (MW) /      1.129 (MB)
	Size of irrep 3 of <iA|bC> integrals:      0.202 (MW) /      1.618 (MB)
	Size of irrep 4 of <iA|bC> integrals:      0.130 (MW) /      1.042 (MB)
	Size of irrep 5 of <iA|bC> integrals:      0.213 (MW) /      1.701 (MB)
	Size of irrep 6 of <iA|bC> integrals:      0.299 (MW) /      2.394 (MB)
	Size of irrep 7 of <iA|bC> integrals:      0.213 (MW) /      1.701 (MB)
	Total:                                     1.724 (MW) /     13.789 (MB)

	Size of irrep 0 of tIjAb amplitudes:       0.010 (MW) /      0.080 (MB)
	Size of irrep 1 of tIjAb amplitudes:       0.004 (MW) /      0.035 (MB)
	Size of irrep 2 of tIjAb amplitudes:       0.000 (MW) /      0.000 (MB)
	Size of irrep 3 of tIjAb amplitudes:       0.004 (MW) /      0.035 (MB)
	Size of irrep 4 of tIjAb amplitudes:       0.000 (MW) /      0.000 (MB)
	Size of irrep 5 of tIjAb amplitudes:       0.005 (MW) /      0.037 (MB)
	Size of irrep 6 of tIjAb amplitudes:       0.009 (MW) /      0.074 (MB)
	Size of irrep 7 of tIjAb amplitudes:       0.005 (MW) /      0.037 (MB)
	Total:                                     0.037 (MW) /      0.298 (MB)

	Nuclear Rep. energy          =      0.00000000000000
	SCF energy                   =   -397.51335640771839
	One-electron energy          =    -16.38754418539303
	Two-electron (AA) energy     =      2.33127416547814
	Two-electron (BB) energy     =      0.36164377388013
	Two-electron (AB) energy     =      3.73445444687695
	Two-electron energy          =      6.42737238623522
	Reference energy             =   -397.51335640771958

*** tstop() called on n411-011.vsc4.prov at Thu Jan 21 14:01:48 2021
Module time:
	user time   =      20.87 seconds =       0.35 minutes
	system time =       9.20 seconds =       0.15 minutes
	total time  =         63 seconds =       1.05 minutes
Total time:
	user time   =     154.86 seconds =       2.58 minutes
	system time =      14.06 seconds =       0.23 minutes
	total time  =        188 seconds =       3.13 minutes
            **************************
            *                        *
            *        CCENERGY        *
            *                        *
            **************************

    Nuclear Rep. energy (wfn)     =    0.000000000000000
    SCF energy          (wfn)     = -397.513356407718391

      * MP2 total energy                      = -397.648701877076348
      * CCSD total energy                     = -397.667368537664345
      * CCSD(T) total energy                     = -397.673687058526639
*** Psi4 exiting successfully. Buy a developer a beer!
