                               Psi4 1.4a3.dev88

  ==> Input File <==

--------------------------------------------------------------------------
# Any line starting with the # character is a comment line
memory 250000 mb
molecule molecule{
0 3
S          0.0000000000        0.0000000000        0.0000000000
}

set {
  reference uhf
  basis aug-cc-pV(t+d)Z
  scf_type OUT_OF_CORE
  freeze_core true
}

energy('ccsd(t)')
--------------------------------------------------------------------------

    Molecular point group: d2h
    Geometry (in Angstrom), charge = 0, multiplicity = 3:

       Center              X                  Y                   Z               Mass
    ------------   -----------------  -----------------  -----------------  -----------------
         S            0.000000000000     0.000000000000     0.000000000000    31.972071174400

  Charge       = 0
  Multiplicity = 3
  Basis Set: AUG-CC-PV(T+D)Z
    Blend: AUG-CC-PV(T+D)Z

    Orbital Energies [Eh]
    ---------------------

    Alpha Occupied:

       1Ag   -92.013736     2Ag    -9.013571     1B3u   -6.705902
       1B1u   -6.705902     1B2u   -6.685387     3Ag    -0.990124
       2B1u   -0.487087     2B3u   -0.487087     2B2u   -0.415726

    Alpha Virtual:

       3B3u    0.091732     3B1u    0.091732     3B2u    0.099793
       4Ag     0.100334     5Ag     0.239008     1B2g    0.239008
       1B3g    0.257224     1B1g    0.257224     6Ag     0.264164
       4B3u    0.512246     4B1u    0.512246     4B2u    0.544061
       2B2g    0.647339     7Ag     0.647339     2B3g    0.683118
       2B1g    0.683118     8Ag     0.697104     9Ag     0.726517
       5B3u    0.817183     5B1u    0.817183     5B2u    0.834995
       1Au     0.834995     6B1u    0.846282     6B3u    0.846282
       6B2u    0.850181     3B2g    1.864441    10Ag     1.864441
       3B1g    1.898398     3B3g    1.898398    11Ag     1.910818
       7B3u    2.273733     7B1u    2.273733     8B3u    2.287846
       8B1u    2.287846     2Au     2.305772     7B2u    2.305772
       9B1u    2.326347     9B3u    2.326347     8B2u    2.328071
       9B2u    2.339958    12Ag     4.082596     4B2g    7.265016
      13Ag     7.265016     4B1g    7.287876     4B3g    7.287876
      14Ag     7.295718

    Beta Occupied:

       1Ag   -91.996050     2Ag    -8.994839     1B2u   -6.675605
       1B1u   -6.660348     1B3u   -6.660348     3Ag    -0.774432
       2B2u   -0.379651

    Beta Virtual:

       2B1u    0.001112     2B3u    0.001112     3B2u    0.101464
       4Ag     0.111470     3B1u    0.119017     3B3u    0.119017
       5Ag     0.279830     1B1g    0.280842     1B3g    0.280842
       1B2g    0.285804     6Ag     0.285804     4B2u    0.554983
       4B1u    0.583696     4B3u    0.583696     7Ag     0.740223
       2B3g    0.746398     2B1g    0.746398     8Ag     0.767266
       2B2g    0.767266     9Ag     0.767857     5B1u    0.851400
       5B3u    0.851400     1Au     0.857507     5B2u    0.857507
       6B3u    0.861104     6B1u    0.861104     6B2u    0.862261
      10Ag     1.921334     3B2g    1.921334     3B3g    1.929286
       3B1g    1.929286    11Ag     1.931821     7B2u    2.348648
       7B3u    2.351683     7B1u    2.351683     8B2u    2.358517
       2Au     2.358517     8B1u    2.358630     8B3u    2.358630
       9B2u    2.364780     9B1u    2.365525     9B3u    2.365525
      12Ag     4.117368     4B2g    7.286596    13Ag     7.286596
       4B3g    7.300058     4B1g    7.300058    14Ag     7.304561

    Final Occupation by Irrep:
             Ag   B1g   B2g   B3g    Au   B1u   B2u   B3u
    DOCC [     3,    0,    0,    0,    0,    1,    2,    1 ]
    SOCC [     0,    0,    0,    0,    0,    1,    0,    1 ]

  @UHF Final Energy:  -397.50998211233025

   => Energetics <=

    Nuclear Repulsion Energy =              0.0000000000000000
    One-Electron Energy =                -549.3741705805152833
    Two-Electron Energy =                 151.8641884681850343
    Total Energy =                       -397.5099821123302490

  UHF NO Occupations:
  HONO-2 :    3 Ag 1.9942467
  HONO-1 :    2B3u 1.0000000
  HONO-0 :    2B1u 1.0000000
  LUNO+0 :    4 Ag 0.0057533
  LUNO+1 :    3B2u 0.0009299
  LUNO+2 :    3B1u 0.0000030
  LUNO+3 :    3B3u 0.0000030

Computation Completed

Properties will be evaluated at   0.000000,   0.000000,   0.000000 [a0]

Properties computed using the SCF density matrix

  Nuclear Dipole Moment: [e a0]
     X:     0.0000      Y:     0.0000      Z:     0.0000

  Electronic Dipole Moment: [e a0]
     X:     0.0000      Y:     0.0000      Z:     0.0000

  Dipole Moment: [e a0]
     X:     0.0000      Y:     0.0000      Z:     0.0000     Total:     0.0000

  Dipole Moment: [D]
     X:     0.0000      Y:     0.0000      Z:     0.0000     Total:     0.0000

*** tstop() called on n412-040.vsc4.prov at Tue Jan 26 18:04:13 2021
Module time:
	user time   =      12.36 seconds =       0.21 minutes
	system time =       1.09 seconds =       0.02 minutes
	total time  =          3 seconds =       0.05 minutes
Total time:
	user time   =      12.36 seconds =       0.21 minutes
	system time =       1.09 seconds =       0.02 minutes
	total time  =          3 seconds =       0.05 minutes

*** tstart() called on n412-040.vsc4.prov
*** at Tue Jan 26 18:04:13 2021

	Wfn Parameters:
	--------------------
	Wavefunction         = CCSD_T
	Number of irreps     = 8
	Number of MOs        = 55
	Number of active MOs = 50
	AO-Basis             = NONE
	Semicanonical        = false
	Reference            = UHF
	Print Level          = 1

	IRREP	# MOs	# FZDC	# DOCC	# SOCC	# VIRT	# FZVR
	-----	-----	------	------	------	------	------
	 Ag	   14	    2	    1	    0	    11	    0
	 B1g	   4	    0	    0	    0	    4	    0
	 B2g	   4	    0	    0	    0	    4	    0
	 B3g	   4	    0	    0	    0	    4	    0
	 Au	   2	    0	    0	    0	    2	    0
	 B1u	   9	    1	    0	    1	    7	    0
	 B2u	   9	    1	    1	    0	    7	    0
	 B3u	   9	    1	    0	    1	    7	    0
	Transforming integrals...
	IWL integrals will be deleted.
	(OO|OO)...
	Presorting SO-basis two-electron integrals.
	Sorting File: SO Ints (nn|nn) nbuckets = 1
	Constructing frozen core operators
	Starting AA/AB first half-transformation.
	Sorting AA/AB half-transformed integrals.
	Starting BB first half-transformation.
	Sorting BB half-transformed integrals.
	First half integral transformation complete.
	Starting AA second half-transformation.
	Starting AB second half-transformation.
	Starting BB second half-transformation.
	Two-electron integral transformation complete.
	(OO|OV)...
	Starting AA second half-transformation.
	Starting AB second half-transformation.
	Starting BB second half-transformation.
	Two-electron integral transformation complete.
	(OO|VV)...
	Starting AA second half-transformation.
	Starting AB second half-transformation.
	Starting BB second half-transformation.
	Two-electron integral transformation complete.
	(OV|OO)...
	Starting AA/AB first half-transformation.
	Sorting AA/AB half-transformed integrals.
	Starting BB first half-transformation.
	Sorting BB half-transformed integrals.
	First half integral transformation complete.
	Starting AA second half-transformation.
	Starting AB second half-transformation.
	Starting BB second half-transformation.
	Two-electron integral transformation complete.
	(OV|OV)...
	Starting AA second half-transformation.
	Starting AB second half-transformation.
	Starting BB second half-transformation.
	Two-electron integral transformation complete.
	(OV|VV)...
	Starting AA second half-transformation.
	Starting AB second half-transformation.
	Starting BB second half-transformation.
	Two-electron integral transformation complete.
	(VV|OO)...
	Starting AA/AB first half-transformation.
	Sorting AA/AB half-transformed integrals.
	Starting BB first half-transformation.
	Sorting BB half-transformed integrals.
	First half integral transformation complete.
	Starting AA second half-transformation.
	Starting AB second half-transformation.
	Starting BB second half-transformation.
	Two-electron integral transformation complete.
	(VV|OV)...
	Starting AA second half-transformation.
	Starting AB second half-transformation.
	Starting BB second half-transformation.
	Two-electron integral transformation complete.
	(VV|VV)...
	Starting AA second half-transformation.
	Starting AB second half-transformation.
	Starting BB second half-transformation.
	Two-electron integral transformation complete.
	Frozen core energy     =   -387.55061882141888

	Size of irrep 0 of <AB|CD> integrals:      0.019 (MW) /      0.150 (MB)
	Size of irrep 1 of <AB|CD> integrals:      0.015 (MW) /      0.121 (MB)
	Size of irrep 2 of <AB|CD> integrals:      0.015 (MW) /      0.121 (MB)
	Size of irrep 3 of <AB|CD> integrals:      0.015 (MW) /      0.121 (MB)
	Size of irrep 4 of <AB|CD> integrals:      0.011 (MW) /      0.090 (MB)
	Size of irrep 5 of <AB|CD> integrals:      0.020 (MW) /      0.159 (MB)
	Size of irrep 6 of <AB|CD> integrals:      0.020 (MW) /      0.159 (MB)
	Size of irrep 7 of <AB|CD> integrals:      0.020 (MW) /      0.159 (MB)
	Total:                                     0.135 (MW) /      1.080 (MB)

	Size of irrep 0 of <ab|cd> integrals:      0.023 (MW) /      0.182 (MB)
	Size of irrep 1 of <ab|cd> integrals:      0.017 (MW) /      0.139 (MB)
	Size of irrep 2 of <ab|cd> integrals:      0.019 (MW) /      0.152 (MB)
	Size of irrep 3 of <ab|cd> integrals:      0.017 (MW) /      0.139 (MB)
	Size of irrep 4 of <ab|cd> integrals:      0.013 (MW) /      0.104 (MB)
	Size of irrep 5 of <ab|cd> integrals:      0.024 (MW) /      0.195 (MB)
	Size of irrep 6 of <ab|cd> integrals:      0.022 (MW) /      0.178 (MB)
	Size of irrep 7 of <ab|cd> integrals:      0.024 (MW) /      0.195 (MB)
	Total:                                     0.161 (MW) /      1.284 (MB)

	Size of irrep 0 of <Ab|Cd> integrals:      0.112 (MW) /      0.892 (MB)
	Size of irrep 1 of <Ab|Cd> integrals:      0.065 (MW) /      0.520 (MB)
	Size of irrep 2 of <Ab|Cd> integrals:      0.068 (MW) /      0.541 (MB)
	Size of irrep 3 of <Ab|Cd> integrals:      0.065 (MW) /      0.520 (MB)
	Size of irrep 4 of <Ab|Cd> integrals:      0.048 (MW) /      0.387 (MB)
	Size of irrep 5 of <Ab|Cd> integrals:      0.088 (MW) /      0.706 (MB)
	Size of irrep 6 of <Ab|Cd> integrals:      0.084 (MW) /      0.673 (MB)
	Size of irrep 7 of <Ab|Cd> integrals:      0.088 (MW) /      0.706 (MB)
	Total:                                     0.618 (MW) /      4.945 (MB)

	Size of irrep 0 of <IA|BC> integrals:      0.010 (MW) /      0.082 (MB)
	Size of irrep 1 of <IA|BC> integrals:      0.005 (MW) /      0.039 (MB)
	Size of irrep 2 of <IA|BC> integrals:      0.005 (MW) /      0.039 (MB)
	Size of irrep 3 of <IA|BC> integrals:      0.005 (MW) /      0.039 (MB)
	Size of irrep 4 of <IA|BC> integrals:      0.003 (MW) /      0.024 (MB)
	Size of irrep 5 of <IA|BC> integrals:      0.007 (MW) /      0.059 (MB)
	Size of irrep 6 of <IA|BC> integrals:      0.007 (MW) /      0.059 (MB)
	Size of irrep 7 of <IA|BC> integrals:      0.007 (MW) /      0.059 (MB)
	Total:                                     0.050 (MW) /      0.400 (MB)

	Size of irrep 0 of <ia|bc> integrals:      0.006 (MW) /      0.050 (MB)
	Size of irrep 1 of <ia|bc> integrals:      0.003 (MW) /      0.025 (MB)
	Size of irrep 2 of <ia|bc> integrals:      0.002 (MW) /      0.013 (MB)
	Size of irrep 3 of <ia|bc> integrals:      0.003 (MW) /      0.025 (MB)
	Size of irrep 4 of <ia|bc> integrals:      0.001 (MW) /      0.011 (MB)
	Size of irrep 5 of <ia|bc> integrals:      0.004 (MW) /      0.030 (MB)
	Size of irrep 6 of <ia|bc> integrals:      0.005 (MW) /      0.043 (MB)
	Size of irrep 7 of <ia|bc> integrals:      0.004 (MW) /      0.030 (MB)
	Total:                                     0.029 (MW) /      0.228 (MB)

	Size of irrep 0 of <Ia|Bc> integrals:      0.011 (MW) /      0.091 (MB)
	Size of irrep 1 of <Ia|Bc> integrals:      0.005 (MW) /      0.043 (MB)
	Size of irrep 2 of <Ia|Bc> integrals:      0.006 (MW) /      0.046 (MB)
	Size of irrep 3 of <Ia|Bc> integrals:      0.005 (MW) /      0.043 (MB)
	Size of irrep 4 of <Ia|Bc> integrals:      0.003 (MW) /      0.025 (MB)
	Size of irrep 5 of <Ia|Bc> integrals:      0.008 (MW) /      0.064 (MB)
	Size of irrep 6 of <Ia|Bc> integrals:      0.008 (MW) /      0.060 (MB)
	Size of irrep 7 of <Ia|Bc> integrals:      0.008 (MW) /      0.064 (MB)
	Total:                                     0.054 (MW) /      0.436 (MB)

	Size of irrep 0 of <iA|bC> integrals:      0.006 (MW) /      0.048 (MB)
	Size of irrep 1 of <iA|bC> integrals:      0.003 (MW) /      0.022 (MB)
	Size of irrep 2 of <iA|bC> integrals:      0.002 (MW) /      0.012 (MB)
	Size of irrep 3 of <iA|bC> integrals:      0.003 (MW) /      0.022 (MB)
	Size of irrep 4 of <iA|bC> integrals:      0.001 (MW) /      0.011 (MB)
	Size of irrep 5 of <iA|bC> integrals:      0.003 (MW) /      0.026 (MB)
	Size of irrep 6 of <iA|bC> integrals:      0.005 (MW) /      0.042 (MB)
	Size of irrep 7 of <iA|bC> integrals:      0.003 (MW) /      0.026 (MB)
	Total:                                     0.026 (MW) /      0.210 (MB)

	Size of irrep 0 of tIjAb amplitudes:       0.001 (MW) /      0.005 (MB)
	Size of irrep 1 of tIjAb amplitudes:       0.000 (MW) /      0.002 (MB)
	Size of irrep 2 of tIjAb amplitudes:       0.000 (MW) /      0.000 (MB)
	Size of irrep 3 of tIjAb amplitudes:       0.000 (MW) /      0.002 (MB)
	Size of irrep 4 of tIjAb amplitudes:       0.000 (MW) /      0.000 (MB)
	Size of irrep 5 of tIjAb amplitudes:       0.000 (MW) /      0.002 (MB)
	Size of irrep 6 of tIjAb amplitudes:       0.001 (MW) /      0.005 (MB)
	Size of irrep 7 of tIjAb amplitudes:       0.000 (MW) /      0.002 (MB)
	Total:                                     0.002 (MW) /      0.019 (MB)

	Nuclear Rep. energy          =      0.00000000000000
	SCF energy                   =   -397.50998211233025
	One-electron energy          =    -16.38461928411212
	Two-electron (AA) energy     =      2.33031116868442
	Two-electron (BB) energy     =      0.36160123227135
	Two-electron (AB) energy     =      3.73334359224541
	Two-electron energy          =      6.42525599320118
	Reference energy             =   -397.50998211232979

*** tstop() called on n412-040.vsc4.prov at Tue Jan 26 18:04:15 2021
Module time:
	user time   =       0.18 seconds =       0.00 minutes
	system time =       0.22 seconds =       0.00 minutes
	total time  =          2 seconds =       0.03 minutes
Total time:
	user time   =      12.54 seconds =       0.21 minutes
	system time =       1.31 seconds =       0.02 minutes
	total time  =          5 seconds =       0.08 minutes
            **************************
            *                        *
            *        CCENERGY        *
            *                        *
            **************************

    Nuclear Rep. energy (wfn)     =    0.000000000000000
    SCF energy          (wfn)     = -397.509982112330249
    Reference energy    (file100) = -397.509982112329794

    Input parameters:
    -----------------
    Wave function   =     CCSD_T
    Reference wfn   =     UHF
    Brueckner       =     No
    Memory (Mbytes) =     250000.0
    Maxiter         =     50
    R_Convergence   =     1.0e-07
    E_Convergence   =     1.0e-06
    Restart         =     Yes
    DIIS            =     Yes
    AO Basis        =     NONE
    ABCD            =     NEW
    Cache Level     =     2
    Cache Type      =     LRU
    Print Level     =     1
    Num. of threads =     48
    # Amps to Print =     10
    Print MP2 Amps? =     No
    Analyze T2 Amps =     No
    Print Pair Ener =     No
    Local CC        =     No
    SCS-MP2         =     False
    SCSN-MP2        =     False
    SCS-CCSD        =     False

MP2 correlation energy -0.1187422919862812
                Solving CC Amplitude Equations
                ------------------------------
  Iter             Energy              RMS        T1Diag      D1Diag    New D1Diag    D2Diag
  ----     ---------------------    ---------   ----------  ----------  ----------   --------
     0        -0.118742291986281    0.000e+00    0.000000    0.000000    0.000000    0.000000
     1        -0.136229616177553    4.666e-02    0.008304    0.000000    0.000000    0.000000
     2        -0.141838021050556    1.615e-02    0.013082    0.000000    0.000000    0.000000
     3        -0.142155988137656    3.674e-03    0.014370    0.000000    0.000000    0.000000
     4        -0.142154733940765    6.989e-04    0.014483    0.000000    0.000000    0.000000
     5        -0.142150160270168    2.390e-04    0.014480    0.000000    0.000000    0.000000
     6        -0.142151484861049    9.478e-05    0.014470    0.000000    0.000000    0.000000
     7        -0.142152272630253    2.888e-05    0.014468    0.000000    0.000000    0.000000
     8        -0.142151970058852    8.938e-06    0.014468    0.000000    0.000000    0.000000
     9        -0.142151958617532    2.080e-06    0.014468    0.000000    0.000000    0.000000
    10        -0.142151968617129    5.712e-07    0.014468    0.000000    0.000000    0.000000
    11        -0.142151966810225    1.274e-07    0.014468    0.000000    0.000000    0.000000
    12        -0.142151963603389    3.641e-08    0.014468    0.000000    0.000000    0.000000

    Iterations converged.

    Largest TIA Amplitudes:
              0   4        -0.0061646816
              0   2         0.0058481145
              2  33         0.0056428009
              0   5         0.0039008124
              2  32        -0.0035034504
              3  39         0.0026795776
              1  25         0.0026795776
              2  35        -0.0018878355
              0   0        -0.0018817351
              2  37        -0.0016042775

    Largest Tia Amplitudes:
              0   3         0.0216396265
              0   1         0.0215221613
              0   5        -0.0079088295
              1  36        -0.0053848364
              0   0         0.0050443739
              0   7         0.0039367300
              1  39         0.0036670225
              1  34        -0.0032526742
              1  33         0.0011582630
              1  37         0.0011248768

    Largest TIJAB Amplitudes:
      3   1  16   3        -0.0244714099
      3   2  12   4         0.0236817471
      2   1  20   4        -0.0236817471
      3   1  15   1        -0.0220581318
      3   1  16   1        -0.0206809979
      3   1  15   3        -0.0206809979
      3   2  11   2        -0.0194589516
      2   1  19   2         0.0194589516
      3   2  11   4         0.0193692891
      2   1  19   4        -0.0193692891

    Largest Tijab Amplitudes:
      1   0  25  20        -0.0138971240
      1   0  40  12        -0.0138971240
      1   0  40  11        -0.0127920625
      1   0  25  19        -0.0127920625
      1   0  34   5        -0.0100742280
      1   0  41  12        -0.0083745702
      1   0  26  20        -0.0083745702
      1   0  42  12         0.0074213410

      * MP2 total energy                      = -397.628724404316074
      * CCSD total energy                     = -397.652134075933191
      * CCSD(T) total energy                     = -397.657277288112084
*** Psi4 exiting successfully. Buy a developer a beer!
