                               Psi4 1.4a3.dev88

  ==> Input File <==

--------------------------------------------------------------------------
# Any line starting with the # character is a comment line
memory 250000 mb
molecule molecule{
0 1
N          0.0000000000        0.0000000000       -0.5570422157
N          0.0000000000        0.0000000000        0.5570422157
}

set {
  reference rhf
  basis aug-cc-pV(t+d)Z
  scf_type OUT_OF_CORE
  freeze_core true
}

energy('ccsd(t)')
--------------------------------------------------------------------------

    Molecular point group: d2h

    Geometry (in Angstrom), charge = 0, multiplicity = 1:

       Center              X                  Y                   Z               Mass
    ------------   -----------------  -----------------  -----------------  -----------------
         N            0.000000000000     0.000000000000    -0.557042215700    14.003074004430
         N            0.000000000000     0.000000000000     0.557042215700    14.003074004430

  Charge       = 0
  Multiplicity = 1
  Basis Set: AUG-CC-PV(T+D)Z
    Blend: AUG-CC-PV(T+D)Z

    Orbital Energies [Eh]
    ---------------------

    Doubly Occupied:

       1Ag   -15.691416     1B1u  -15.688196     2Ag    -1.460643
       2B1u   -0.785116     3Ag    -0.633146     1B3u   -0.607629
       1B2u   -0.607629

  @RHF Final Energy:  -108.98075988438886

   => Energetics <=

    Nuclear Repulsion Energy =             23.2744328813982229
    One-Electron Energy =                -193.5628377134802918
    Two-Electron Energy =                  61.3076449476932126
    Total Energy =                       -108.9807598843888741

  Dipole Moment: [D]
     X:     0.0000      Y:     0.0000      Z:    -0.0000     Total:     0.0000

      * MP2 total energy                      = -109.364799914047339
      * CCSD total energy                     = -109.360777818448170
      * CCSD(T) total energy                  = -109.380586434282719
*** Psi4 exiting successfully. Buy a developer a beer!
