                               Psi4 1.2a1.dev938

  ==> Input File <==

--------------------------------------------------------------------------
# Any line starting with the # character is a comment line
memory 250000 mb
molecule molecule{
0 2
H          0.0000000000        0.0000000000        0.0000000000
}

set {
  reference uhf
  basis aug-cc-pv(6+d)z
  scf_type OUT_OF_CORE
  freeze_core true
}

energy('ccsd')
--------------------------------------------------------------------------

    Molecular point group: d2h
    Geometry (in Angstrom), charge = 0, multiplicity = 2:

       Center              X                  Y                   Z               Mass
    ------------   -----------------  -----------------  -----------------  -----------------
           H          0.000000000000     0.000000000000     0.000000000000     1.007825032070

  Charge       = 0
  Multiplicity = 2
  Basis Set: AUG-CC-PV(6+D)Z
    Blend: AUG-CC-PV(6+D)Z

    Orbital Energies (a.u.)
    -----------------------

    Alpha Occupied:

       1Ag    -0.499999

    Alpha Virtual:

       2Ag     0.035258     1B1u    0.136091     1B2u    0.136091
       1B3u    0.136091     3Ag     0.204759     1B1g    0.397796
       4Ag     0.397796     1B2g    0.397796     1B3g    0.397796
       5Ag     0.397796     2B1u    0.545600     2B3u    0.545600
       2B2u    0.545600     6Ag     0.694793     3B2u    1.038427
       3B3u    1.038427     1Au     1.038427     3B1u    1.038427
       4B2u    1.038427     4B3u    1.038427     4B1u    1.038427
       7Ag     1.381554     2B1g    1.381554     2B2g    1.381554
       2B3g    1.381554     8Ag     1.381554     5B2u    1.689451
       5B3u    1.689451     5B1u    1.689451     9Ag     1.933597
      10Ag     2.159337     3B1g    2.159337     3B2g    2.159337
       3B3g    2.159337     4B1g    2.159337    11Ag     2.159337
       4B2g    2.159337     4B3g    2.159337    12Ag     2.159337
       6B2u    3.528152     6B3u    3.528152     2Au     3.528152
       6B1u    3.528152     7B2u    3.528152     7B3u    3.528152
       7B1u    3.528152     5B1g    3.694158    13Ag     3.694158
       5B2g    3.694158     5B3g    3.694158    14Ag     3.694158
       8B3u    4.363683     8B2u    4.363683     8B1u    4.363683
       3Au     4.363683     9B3u    4.363683     9B2u    4.363683
       4Au     4.363683     9B1u    4.363683    10B3u    4.363683
      10B2u    4.363683    10B1u    4.363683    11B2u    4.650637
      11B3u    4.650637    11B1u    4.650637    15Ag     5.224066
       6B1g    7.369393    16Ag     7.369393     6B3g    7.369393
       6B2g    7.369393    17Ag     7.369393     7B1g    7.369393
       7B2g    7.369393     7B3g    7.369393    18Ag     7.369393
      19Ag     9.074826     8B1g    9.074826     8B3g    9.074826
       8B2g    9.074826    20Ag     9.074826    12B3u    9.330215
      12B2u    9.330215    12B1u    9.330215     5Au     9.330215
      13B2u    9.330215    13B3u    9.330215    13B1u    9.330215
      14B2u   12.405422    14B3u   12.405422    14B1u   12.405422
      15B2u   17.499728    15B3u   17.499728    15B1u   17.499728
       6Au    17.499728    16B3u   17.499728    16B2u   17.499728
       7Au    17.499728    16B1u   17.499728    17B3u   17.499728
      17B2u   17.499728    17B1u   17.499728    21Ag    19.131205
      22Ag    20.248600     9B1g   20.248600     9B2g   20.248600
       9B3g   20.248600    23Ag    20.248600    10B1g   20.248600
      10B3g   20.248600    10B2g   20.248600    24Ag    20.248600
      25Ag    22.425398    11B1g   22.425398    11B2g   22.425398
      11B3g   22.425398    26Ag    22.425398    18B3u   23.584377
      18B2u   23.584377    18B1u   23.584377     8Au    23.584377
      19B2u   23.584377    19B3u   23.584377    19B1u   23.584377
      20B2u   33.908638    20B3u   33.908638    20B1u   33.908638

    Beta Occupied:

    Beta Virtual:

       1Ag     0.011616     2Ag     0.077306     1B3u    0.148391
       1B2u    0.148391     1B1u    0.148391     3Ag     0.277591
       4Ag     0.403678     1B1g    0.403678     1B3g    0.403678
       1B2g    0.403678     5Ag     0.403678     2B2u    0.597948
       2B3u    0.597948     2B1u    0.597948     6Ag     0.781119
       3B2u    1.045033     3B3u    1.045033     3B1u    1.045033
       1Au     1.045033     4B2u    1.045033     4B3u    1.045033
       4B1u    1.045033     7Ag     1.406038     2B1g    1.406038
       2B3g    1.406038     2B2g    1.406038     8Ag     1.406038
       5B2u    1.757976     5B3u    1.757976     5B1u    1.757976
       9Ag     2.015411    10Ag     2.166072     3B1g    2.166072
       3B2g    2.166072     3B3g    2.166072    11Ag     2.166072
       4B1g    2.166072     4B3g    2.166072     4B2g    2.166072
      12Ag     2.166072     6B2u    3.548048     6B3u    3.548048
       2Au     3.548048     6B1u    3.548048     7B2u    3.548048
       7B3u    3.548048     7B1u    3.548048     5B1g    3.728458
      13Ag     3.728458     5B2g    3.728458     5B3g    3.728458
      14Ag     3.728458     8B3u    4.371012     8B2u    4.371012
       8B1u    4.371012     3Au     4.371012     9B3u    4.371012
       9B2u    4.371012     9B1u    4.371012     4Au     4.371012
      10B3u    4.371012    10B2u    4.371012    10B1u    4.371012
      11B2u    4.709753    11B3u    4.709753    11B1u    4.709753
      15Ag     5.292947     6B1g    7.385551    16Ag     7.385551
       6B3g    7.385551     6B2g    7.385551    17Ag     7.385551
       7B1g    7.385551     7B2g    7.385551     7B3g    7.385551
      18Ag     7.385551     8B1g    9.107634    19Ag     9.107634
       8B3g    9.107634     8B2g    9.107634    20Ag     9.107634
      12B3u    9.353720    12B2u    9.353720    12B1u    9.353720
       5Au     9.353720    13B2u    9.353720    13B3u    9.353720
      13B1u    9.353720    14B2u   12.447392    14B3u   12.447392
      14B1u   12.447392    15B2u   17.513691    15B3u   17.513691
       6Au    17.513691    15B1u   17.513691    16B2u   17.513691
      16B3u   17.513691     7Au    17.513691    16B1u   17.513691
      17B3u   17.513691    17B2u   17.513691    17B1u   17.513691
      21Ag    19.176618    22Ag    20.265803     9B1g   20.265803
       9B2g   20.265803     9B3g   20.265803    23Ag    20.265803
      10B1g   20.265803    10B2g   20.265803    10B3g   20.265803
      24Ag    20.265803    25Ag    22.451578    11B1g   22.451578
      11B2g   22.451578    11B3g   22.451578    26Ag    22.451578
      18B2u   23.605115    18B3u   23.605115    18B1u   23.605115
       8Au    23.605115    19B2u   23.605115    19B3u   23.605115
      19B1u   23.605115    20B2u   33.934552    20B3u   33.934552
      20B1u   33.934552

    Final Occupation by Irrep:
             Ag   B1g   B2g   B3g    Au   B1u   B2u   B3u
    DOCC [     0,    0,    0,    0,    0,    0,    0,    0 ]
    SOCC [     1,    0,    0,    0,    0,    0,    0,    0 ]

  Energy converged.

  @UHF Final Energy:    -0.49999927639675

   => Energetics <=

    Nuclear Repulsion Energy =              0.0000000000000000
    One-Electron Energy =                  -0.4999992763967512
    Two-Electron Energy =                   0.0000000000000002
    Total Energy =                         -0.4999992763967511

  UHF NO Occupations:
  HONO-0 :    1 Ag 1.0000000
  LUNO+0 :    2 Ag 0.0000000
  LUNO+1 :    3 Ag 0.0000000
  LUNO+2 :    4 Ag 0.0000000
  LUNO+3 :    5 Ag 0.0000000

Properties will be evaluated at   0.000000,   0.000000,   0.000000 Bohr

Properties computed using the SCF density matrix

  Nuclear Dipole Moment: (a.u.)
     X:     0.0000      Y:     0.0000      Z:     0.0000

  Electronic Dipole Moment: (a.u.)
     X:     0.0000      Y:     0.0000      Z:     0.0000

  Dipole Moment: (a.u.)
     X:     0.0000      Y:     0.0000      Z:     0.0000     Total:     0.0000

  Dipole Moment: (Debye)
     X:     0.0000      Y:     0.0000      Z:     0.0000     Total:     0.0000

*** tstop() called on cqc05 at Fri Aug 21 10:23:13 2020
Module time:
	user time   =       5.55 seconds =       0.09 minutes
	system time =       0.10 seconds =       0.00 minutes
	total time  =          5 seconds =       0.08 minutes
Total time:
	user time   =       5.55 seconds =       0.09 minutes
	system time =       0.10 seconds =       0.00 minutes
	total time  =          5 seconds =       0.08 minutes

*** tstart() called on cqc05
*** at Fri Aug 21 10:23:13 2020

	Wfn Parameters:
	--------------------
	Wavefunction         = CCSD
	Number of irreps     = 8
	Number of MOs        = 127
	Number of active MOs = 127
	AO-Basis             = NONE
	Semicanonical        = false
	Reference            = UHF
	Print Level          = 1

	IRREP	# MOs	# FZDC	# DOCC	# SOCC	# VIRT	# FZVR
	-----	-----	------	------	------	------	------
	 Ag	   26	    0	    0	    1	    25	    0
	 B1g	   11	    0	    0	    0	    11	    0
	 B2g	   11	    0	    0	    0	    11	    0
	 B3g	   11	    0	    0	    0	    11	    0
	 Au	   8	    0	    0	    0	    8	    0
	 B1u	   20	    0	    0	    0	    20	    0
	 B2u	   20	    0	    0	    0	    20	    0
	 B3u	   20	    0	    0	    0	    20	    0
	Transforming integrals...
	IWL integrals will be deleted.
	(OO|OO)...
	Presorting SO-basis two-electron integrals.
	Sorting File: SO Ints (nn|nn) nbuckets = 1
	Transforming the one-electron integrals and constructing Fock matrices
	Starting AA/AB first half-transformation.
	Sorting AA/AB half-transformed integrals.
	Starting BB first half-transformation.
	Sorting BB half-transformed integrals.
	First half integral transformation complete.
	Starting AA second half-transformation.
	Starting AB second half-transformation.
	Starting BB second half-transformation.
	Two-electron integral transformation complete.
	(OO|OV)...
	Starting AA second half-transformation.
	Starting AB second half-transformation.
	Starting BB second half-transformation.
	Two-electron integral transformation complete.
	(OO|VV)...
	Starting AA second half-transformation.
	Starting AB second half-transformation.
	Starting BB second half-transformation.
	Two-electron integral transformation complete.
	(OV|OO)...
	Starting AA/AB first half-transformation.
	Sorting AA/AB half-transformed integrals.
	Starting BB first half-transformation.
	Sorting BB half-transformed integrals.
	First half integral transformation complete.
	Starting AA second half-transformation.
	Starting AB second half-transformation.
	Starting BB second half-transformation.
	Two-electron integral transformation complete.
	(OV|OV)...
	Starting AA second half-transformation.
	Starting AB second half-transformation.
	Starting BB second half-transformation.
	Two-electron integral transformation complete.
	(OV|VV)...
	Starting AA second half-transformation.
	Starting AB second half-transformation.
	Starting BB second half-transformation.
	Two-electron integral transformation complete.
	(VV|OO)...
	Starting AA/AB first half-transformation.
	Sorting AA/AB half-transformed integrals.
	Starting BB first half-transformation.
	Sorting BB half-transformed integrals.
	First half integral transformation complete.
	Starting AA second half-transformation.
	Starting AB second half-transformation.
	Starting BB second half-transformation.
	Two-electron integral transformation complete.
	(VV|OV)...
	Starting AA second half-transformation.
	Starting AB second half-transformation.
	Starting BB second half-transformation.
	Two-electron integral transformation complete.
	(VV|VV)...
	Starting AA second half-transformation.
	Starting AB second half-transformation.
	Starting BB second half-transformation.
	Two-electron integral transformation complete.
	Frozen core energy     =      0.00000000000000

	Size of irrep 0 of <AB|CD> integrals:      1.130 (MW) /      9.040 (MB)
	Size of irrep 1 of <AB|CD> integrals:      0.914 (MW) /      7.311 (MB)
	Size of irrep 2 of <AB|CD> integrals:      0.914 (MW) /      7.311 (MB)
	Size of irrep 3 of <AB|CD> integrals:      0.914 (MW) /      7.311 (MB)
	Size of irrep 4 of <AB|CD> integrals:      0.740 (MW) /      5.917 (MB)
	Size of irrep 5 of <AB|CD> integrals:      1.057 (MW) /      8.454 (MB)
	Size of irrep 6 of <AB|CD> integrals:      1.057 (MW) /      8.454 (MB)
	Size of irrep 7 of <AB|CD> integrals:      1.057 (MW) /      8.454 (MB)
	Total:                                     7.782 (MW) /     62.254 (MB)

	Size of irrep 0 of <ab|cd> integrals:      1.184 (MW) /      9.470 (MB)
	Size of irrep 1 of <ab|cd> integrals:      0.935 (MW) /      7.481 (MB)
	Size of irrep 2 of <ab|cd> integrals:      0.935 (MW) /      7.481 (MB)
	Size of irrep 3 of <ab|cd> integrals:      0.935 (MW) /      7.481 (MB)
	Size of irrep 4 of <ab|cd> integrals:      0.753 (MW) /      6.027 (MB)
	Size of irrep 5 of <ab|cd> integrals:      1.098 (MW) /      8.786 (MB)
	Size of irrep 6 of <ab|cd> integrals:      1.098 (MW) /      8.786 (MB)
	Size of irrep 7 of <ab|cd> integrals:      1.098 (MW) /      8.786 (MB)
	Total:                                     8.037 (MW) /     64.299 (MB)

	Size of irrep 0 of <Ab|Cd> integrals:      5.185 (MW) /     41.478 (MB)
	Size of irrep 1 of <Ab|Cd> integrals:      3.698 (MW) /     29.583 (MB)
	Size of irrep 2 of <Ab|Cd> integrals:      3.698 (MW) /     29.583 (MB)
	Size of irrep 3 of <Ab|Cd> integrals:      3.698 (MW) /     29.583 (MB)
	Size of irrep 4 of <Ab|Cd> integrals:      2.986 (MW) /     23.888 (MB)
	Size of irrep 5 of <Ab|Cd> integrals:      4.310 (MW) /     34.478 (MB)
	Size of irrep 6 of <Ab|Cd> integrals:      4.310 (MW) /     34.478 (MB)
	Size of irrep 7 of <Ab|Cd> integrals:      4.310 (MW) /     34.478 (MB)
	Total:                                    32.194 (MW) /    257.551 (MB)

	Size of irrep 0 of <IA|BC> integrals:      0.056 (MW) /      0.450 (MB)
	Size of irrep 1 of <IA|BC> integrals:      0.021 (MW) /      0.168 (MB)
	Size of irrep 2 of <IA|BC> integrals:      0.021 (MW) /      0.168 (MB)
	Size of irrep 3 of <IA|BC> integrals:      0.021 (MW) /      0.168 (MB)
	Size of irrep 4 of <IA|BC> integrals:      0.014 (MW) /      0.110 (MB)
	Size of irrep 5 of <IA|BC> integrals:      0.041 (MW) /      0.329 (MB)
	Size of irrep 6 of <IA|BC> integrals:      0.041 (MW) /      0.329 (MB)
	Size of irrep 7 of <IA|BC> integrals:      0.041 (MW) /      0.329 (MB)
	Total:                                     0.257 (MW) /      2.052 (MB)

	Size of irrep 0 of <ia|bc> integrals:      0.000 (MW) /      0.000 (MB)
	Size of irrep 1 of <ia|bc> integrals:      0.000 (MW) /      0.000 (MB)
	Size of irrep 2 of <ia|bc> integrals:      0.000 (MW) /      0.000 (MB)
	Size of irrep 3 of <ia|bc> integrals:      0.000 (MW) /      0.000 (MB)
	Size of irrep 4 of <ia|bc> integrals:      0.000 (MW) /      0.000 (MB)
	Size of irrep 5 of <ia|bc> integrals:      0.000 (MW) /      0.000 (MB)
	Size of irrep 6 of <ia|bc> integrals:      0.000 (MW) /      0.000 (MB)
	Size of irrep 7 of <ia|bc> integrals:      0.000 (MW) /      0.000 (MB)
	Total:                                     0.000 (MW) /      0.000 (MB)

	Size of irrep 0 of <Ia|Bc> integrals:      0.059 (MW) /      0.474 (MB)
	Size of irrep 1 of <Ia|Bc> integrals:      0.021 (MW) /      0.169 (MB)
	Size of irrep 2 of <Ia|Bc> integrals:      0.021 (MW) /      0.169 (MB)
	Size of irrep 3 of <Ia|Bc> integrals:      0.021 (MW) /      0.169 (MB)
	Size of irrep 4 of <Ia|Bc> integrals:      0.014 (MW) /      0.111 (MB)
	Size of irrep 5 of <Ia|Bc> integrals:      0.042 (MW) /      0.332 (MB)
	Size of irrep 6 of <Ia|Bc> integrals:      0.042 (MW) /      0.332 (MB)
	Size of irrep 7 of <Ia|Bc> integrals:      0.042 (MW) /      0.332 (MB)
	Total:                                     0.261 (MW) /      2.088 (MB)

	Size of irrep 0 of <iA|bC> integrals:      0.000 (MW) /      0.000 (MB)
	Size of irrep 1 of <iA|bC> integrals:      0.000 (MW) /      0.000 (MB)
	Size of irrep 2 of <iA|bC> integrals:      0.000 (MW) /      0.000 (MB)
	Size of irrep 3 of <iA|bC> integrals:      0.000 (MW) /      0.000 (MB)
	Size of irrep 4 of <iA|bC> integrals:      0.000 (MW) /      0.000 (MB)
	Size of irrep 5 of <iA|bC> integrals:      0.000 (MW) /      0.000 (MB)
	Size of irrep 6 of <iA|bC> integrals:      0.000 (MW) /      0.000 (MB)
	Size of irrep 7 of <iA|bC> integrals:      0.000 (MW) /      0.000 (MB)
	Total:                                     0.000 (MW) /      0.000 (MB)

	Size of irrep 0 of tIjAb amplitudes:       0.000 (MW) /      0.000 (MB)
	Size of irrep 1 of tIjAb amplitudes:       0.000 (MW) /      0.000 (MB)
	Size of irrep 2 of tIjAb amplitudes:       0.000 (MW) /      0.000 (MB)
	Size of irrep 3 of tIjAb amplitudes:       0.000 (MW) /      0.000 (MB)
	Size of irrep 4 of tIjAb amplitudes:       0.000 (MW) /      0.000 (MB)
	Size of irrep 5 of tIjAb amplitudes:       0.000 (MW) /      0.000 (MB)
	Size of irrep 6 of tIjAb amplitudes:       0.000 (MW) /      0.000 (MB)
	Size of irrep 7 of tIjAb amplitudes:       0.000 (MW) /      0.000 (MB)
	Total:                                     0.000 (MW) /      0.000 (MB)

	Nuclear Rep. energy          =      0.00000000000000
	SCF energy                   =     -0.49999927639675
	One-electron energy          =     -0.49999927639681
	Two-electron (AA) energy     =      0.00000000000000
	Two-electron (BB) energy     =      0.00000000000000
	Two-electron (AB) energy     =      0.00000000000000
	Two-electron energy          =      0.00000000000000
	Reference energy             =     -0.49999927639681

*** tstop() called on cqc05 at Fri Aug 21 10:23:17 2020
Module time:
	user time   =       2.36 seconds =       0.04 minutes
	system time =       1.28 seconds =       0.02 minutes
	total time  =          4 seconds =       0.07 minutes
Total time:
	user time   =       7.91 seconds =       0.13 minutes
	system time =       1.38 seconds =       0.02 minutes
	total time  =          9 seconds =       0.15 minutes

*** tstart() called on cqc05
*** at Fri Aug 21 10:23:17 2020

            **************************
            *                        *
            *        CCENERGY        *
            *                        *
            **************************

    Nuclear Rep. energy (wfn)     =    0.000000000000000
    SCF energy          (wfn)     =   -0.499999276396751
    Reference energy    (file100) =   -0.499999276396810

    Input parameters:
    -----------------
    Wave function   =     CCSD
    Reference wfn   =     UHF
    Brueckner       =     No
    Memory (Mbytes) =     250000.0
    Maxiter         =     50
    R_Convergence   =     1.0e-07
    E_Convergence   =     1.0e-06
    Restart         =     Yes
    DIIS            =     Yes
    AO Basis        =     NONE
    ABCD            =     NEW
    Cache Level     =     2
    Cache Type      =     LRU
    Print Level     =     1
    Num. of threads =     4
    # Amps to Print =     10
    Print MP2 Amps? =     No
    Analyze T2 Amps =     No
    Print Pair Ener =     No
    Local CC        =     No
    SCS-MP2         =     False
    SCSN-MP2        =     False
    SCS-CCSD        =     False

MP2 correlation energy -0.0000000000000023
                Solving CC Amplitude Equations
                ------------------------------
  Iter             Energy              RMS        T1Diag      D1Diag    New D1Diag    D2Diag
  ----     ---------------------    ---------   ----------  ----------  ----------   --------
     0        -0.000000000000002    0.000e+00    0.000000    0.000000    0.000000    0.000000
     1        -0.000000000000002    4.259e-08    0.000000    0.000000    0.000000    0.000000
     1        -0.000000000000002    4.259e-08    0.000000    0.000000    0.000000    0.000000

    Iterations converged.

    CCSD corr. energy   =   -0.000000000000002
    PPL corr. energy    =    0.000000000000001
    OS PPL corr. energy =    0.000000000000000

      * MP2 total energy                      =   -0.499999276396812
      * CCSD total energy                     =   -0.499999276396812
*** Psi4 exiting successfully. Buy a developer a beer!
