                               Psi4 1.2a1.dev938

  ==> Input File <==

--------------------------------------------------------------------------
# Any line starting with the # character is a comment line
memory 250000 mb
molecule molecule{
0 2
H          0.0000000000        0.0000000000        0.0000000000
}

set {
  reference uhf
  basis aug-cc-pv(q+d)z
  scf_type OUT_OF_CORE
  freeze_core true
}

energy('ccsd')
--------------------------------------------------------------------------

    Molecular point group: d2h
    Geometry (in Angstrom), charge = 0, multiplicity = 2:

       Center              X                  Y                   Z               Mass
    ------------   -----------------  -----------------  -----------------  -----------------
           H          0.000000000000     0.000000000000     0.000000000000     1.007825032070

  Charge       = 0
  Multiplicity = 2
  Basis Set: AUG-CC-PV(Q+D)Z
    Blend: AUG-CC-PV(Q+D)Z

    Orbital Energies (a.u.)
    -----------------------

    Alpha Occupied:

       1Ag    -0.499948

    Alpha Virtual:

       2Ag     0.051183     1B1u    0.171452     1B2u    0.171452
       1B3u    0.171452     3Ag     0.362663     4Ag     0.613318
       1B2g    0.613318     1B3g    0.613318     1B1g    0.613318
       5Ag     0.613318     2B2u    0.741441     2B3u    0.741441
       2B1u    0.741441     3B1u    1.558792     3B2u    1.558792
       3B3u    1.558792     1Au     1.558792     4B1u    1.558792
       4B2u    1.558792     4B3u    1.558792     6Ag     1.575182
       7Ag     2.447851     2B1g    2.447851     2B2g    2.447851
       2B3g    2.447851     8Ag     2.447851     5B3u    2.544648
       5B2u    2.544648     5B1u    2.544648     6B2u    6.551080
       6B3u    6.551080     2Au     6.551080     6B1u    6.551080
       7B2u    6.551080     7B3u    6.551080     7B1u    6.551080
       9Ag     7.383054     8B1u    7.925356     8B3u    7.925356
       8B2u    7.925356    10Ag     8.386670     3B2g    8.386670
       3B3g    8.386670    11Ag     8.386670     3B1g    8.386670

    Beta Occupied:

    Beta Virtual:

       1Ag     0.014566     2Ag     0.110187     1B2u    0.190622
       1B3u    0.190622     1B1u    0.190622     3Ag     0.469075
       4Ag     0.626719     1B1g    0.626719     1B2g    0.626719
       1B3g    0.626719     5Ag     0.626719     2B3u    0.808896
       2B2u    0.808896     2B1u    0.808896     3B2u    1.571363
       3B3u    1.571363     3B1u    1.571363     1Au     1.571363
       4B2u    1.571363     4B3u    1.571363     4B1u    1.571363
       6Ag     1.690004     7Ag     2.487329     2B2g    2.487329
       2B3g    2.487329     8Ag     2.487329     2B1g    2.487329
       5B2u    2.619732     5B3u    2.619732     5B1u    2.619732
       6B1u    6.579923     6B2u    6.579923     6B3u    6.579923
       2Au     6.579923     7B1u    6.579923     7B2u    6.579923
       7B3u    6.579923     9Ag     7.465193     8B3u    7.983373
       8B2u    7.983373     8B1u    7.983373    10Ag     8.428908
       3B1g    8.428908     3B2g    8.428908     3B3g    8.428908
      11Ag     8.428908

    Final Occupation by Irrep:
             Ag   B1g   B2g   B3g    Au   B1u   B2u   B3u
    DOCC [     0,    0,    0,    0,    0,    0,    0,    0 ]
    SOCC [     1,    0,    0,    0,    0,    0,    0,    0 ]

  Energy converged.

  @UHF Final Energy:    -0.49994832146912

   => Energetics <=

    Nuclear Repulsion Energy =              0.0000000000000000
    One-Electron Energy =                  -0.4999483214691202
    Two-Electron Energy =                   0.0000000000000000
    Total Energy =                         -0.4999483214691202

  UHF NO Occupations:
  HONO-0 :    1 Ag 1.0000000
  LUNO+0 :    2 Ag 0.0000000
  LUNO+1 :    3 Ag 0.0000000
  LUNO+2 :    4 Ag 0.0000000
  LUNO+3 :    5 Ag 0.0000000

Properties will be evaluated at   0.000000,   0.000000,   0.000000 Bohr

Properties computed using the SCF density matrix

  Nuclear Dipole Moment: (a.u.)
     X:     0.0000      Y:     0.0000      Z:     0.0000

  Electronic Dipole Moment: (a.u.)
     X:     0.0000      Y:     0.0000      Z:     0.0000

  Dipole Moment: (a.u.)
     X:     0.0000      Y:     0.0000      Z:     0.0000     Total:     0.0000

  Dipole Moment: (Debye)
     X:     0.0000      Y:     0.0000      Z:     0.0000     Total:     0.0000

*** tstop() called on cqc05 at Thu Aug 20 22:40:44 2020
Module time:
	user time   =       0.41 seconds =       0.01 minutes
	system time =       0.02 seconds =       0.00 minutes
	total time  =          0 seconds =       0.00 minutes
Total time:
	user time   =       0.41 seconds =       0.01 minutes
	system time =       0.02 seconds =       0.00 minutes
	total time  =          0 seconds =       0.00 minutes

*** tstart() called on cqc05
*** at Thu Aug 20 22:40:44 2020

	Wfn Parameters:
	--------------------
	Wavefunction         = CCSD
	Number of irreps     = 8
	Number of MOs        = 46
	Number of active MOs = 46
	AO-Basis             = NONE
	Semicanonical        = false
	Reference            = UHF
	Print Level          = 1

	IRREP	# MOs	# FZDC	# DOCC	# SOCC	# VIRT	# FZVR
	-----	-----	------	------	------	------	------
	 Ag	   11	    0	    0	    1	    10	    0
	 B1g	   3	    0	    0	    0	    3	    0
	 B2g	   3	    0	    0	    0	    3	    0
	 B3g	   3	    0	    0	    0	    3	    0
	 Au	   2	    0	    0	    0	    2	    0
	 B1u	   8	    0	    0	    0	    8	    0
	 B2u	   8	    0	    0	    0	    8	    0
	 B3u	   8	    0	    0	    0	    8	    0
	Transforming integrals...
	IWL integrals will be deleted.
	(OO|OO)...
	Presorting SO-basis two-electron integrals.
	Sorting File: SO Ints (nn|nn) nbuckets = 1
	Transforming the one-electron integrals and constructing Fock matrices
	Starting AA/AB first half-transformation.
	Sorting AA/AB half-transformed integrals.
	Starting BB first half-transformation.
	Sorting BB half-transformed integrals.
	First half integral transformation complete.
	Starting AA second half-transformation.
	Starting AB second half-transformation.
	Starting BB second half-transformation.
	Two-electron integral transformation complete.
	(OO|OV)...
	Starting AA second half-transformation.
	Starting AB second half-transformation.
	Starting BB second half-transformation.
	Two-electron integral transformation complete.
	(OO|VV)...
	Starting AA second half-transformation.
	Starting AB second half-transformation.
	Starting BB second half-transformation.
	Two-electron integral transformation complete.
	(OV|OO)...
	Starting AA/AB first half-transformation.
	Sorting AA/AB half-transformed integrals.
	Starting BB first half-transformation.
	Sorting BB half-transformed integrals.
	First half integral transformation complete.
	Starting AA second half-transformation.
	Starting AB second half-transformation.
	Starting BB second half-transformation.
	Two-electron integral transformation complete.
	(OV|OV)...
	Starting AA second half-transformation.
	Starting AB second half-transformation.
	Starting BB second half-transformation.
	Two-electron integral transformation complete.
	(OV|VV)...
	Starting AA second half-transformation.
	Starting AB second half-transformation.
	Starting BB second half-transformation.
	Two-electron integral transformation complete.
	(VV|OO)...
	Starting AA/AB first half-transformation.
	Sorting AA/AB half-transformed integrals.
	Starting BB first half-transformation.
	Sorting BB half-transformed integrals.
	First half integral transformation complete.
	Starting AA second half-transformation.
	Starting AB second half-transformation.
	Starting BB second half-transformation.
	Two-electron integral transformation complete.
	(VV|OV)...
	Starting AA second half-transformation.
	Starting AB second half-transformation.
	Starting BB second half-transformation.
	Two-electron integral transformation complete.
	(VV|VV)...
	Starting AA second half-transformation.
	Starting AB second half-transformation.
	Starting BB second half-transformation.
	Two-electron integral transformation complete.
	Frozen core energy     =      0.00000000000000

	Size of irrep 0 of <AB|CD> integrals:      0.019 (MW) /      0.155 (MB)
	Size of irrep 1 of <AB|CD> integrals:      0.014 (MW) /      0.113 (MB)
	Size of irrep 2 of <AB|CD> integrals:      0.014 (MW) /      0.113 (MB)
	Size of irrep 3 of <AB|CD> integrals:      0.014 (MW) /      0.113 (MB)
	Size of irrep 4 of <AB|CD> integrals:      0.008 (MW) /      0.068 (MB)
	Size of irrep 5 of <AB|CD> integrals:      0.018 (MW) /      0.144 (MB)
	Size of irrep 6 of <AB|CD> integrals:      0.018 (MW) /      0.144 (MB)
	Size of irrep 7 of <AB|CD> integrals:      0.018 (MW) /      0.144 (MB)
	Total:                                     0.124 (MW) /      0.993 (MB)

	Size of irrep 0 of <ab|cd> integrals:      0.022 (MW) /      0.178 (MB)
	Size of irrep 1 of <ab|cd> integrals:      0.015 (MW) /      0.119 (MB)
	Size of irrep 2 of <ab|cd> integrals:      0.015 (MW) /      0.119 (MB)
	Size of irrep 3 of <ab|cd> integrals:      0.015 (MW) /      0.119 (MB)
	Size of irrep 4 of <ab|cd> integrals:      0.009 (MW) /      0.071 (MB)
	Size of irrep 5 of <ab|cd> integrals:      0.020 (MW) /      0.161 (MB)
	Size of irrep 6 of <ab|cd> integrals:      0.020 (MW) /      0.161 (MB)
	Size of irrep 7 of <ab|cd> integrals:      0.020 (MW) /      0.161 (MB)
	Total:                                     0.136 (MW) /      1.089 (MB)

	Size of irrep 0 of <Ab|Cd> integrals:      0.111 (MW) /      0.887 (MB)
	Size of irrep 1 of <Ab|Cd> integrals:      0.058 (MW) /      0.465 (MB)
	Size of irrep 2 of <Ab|Cd> integrals:      0.058 (MW) /      0.465 (MB)
	Size of irrep 3 of <Ab|Cd> integrals:      0.058 (MW) /      0.465 (MB)
	Size of irrep 4 of <Ab|Cd> integrals:      0.035 (MW) /      0.277 (MB)
	Size of irrep 5 of <Ab|Cd> integrals:      0.076 (MW) /      0.609 (MB)
	Size of irrep 6 of <Ab|Cd> integrals:      0.076 (MW) /      0.609 (MB)
	Size of irrep 7 of <Ab|Cd> integrals:      0.076 (MW) /      0.609 (MB)
	Total:                                     0.548 (MW) /      4.386 (MB)

	Size of irrep 0 of <IA|BC> integrals:      0.003 (MW) /      0.026 (MB)
	Size of irrep 1 of <IA|BC> integrals:      0.001 (MW) /      0.006 (MB)
	Size of irrep 2 of <IA|BC> integrals:      0.001 (MW) /      0.006 (MB)
	Size of irrep 3 of <IA|BC> integrals:      0.001 (MW) /      0.006 (MB)
	Size of irrep 4 of <IA|BC> integrals:      0.000 (MW) /      0.003 (MB)
	Size of irrep 5 of <IA|BC> integrals:      0.002 (MW) /      0.017 (MB)
	Size of irrep 6 of <IA|BC> integrals:      0.002 (MW) /      0.017 (MB)
	Size of irrep 7 of <IA|BC> integrals:      0.002 (MW) /      0.017 (MB)
	Total:                                     0.012 (MW) /      0.097 (MB)

	Size of irrep 0 of <ia|bc> integrals:      0.000 (MW) /      0.000 (MB)
	Size of irrep 1 of <ia|bc> integrals:      0.000 (MW) /      0.000 (MB)
	Size of irrep 2 of <ia|bc> integrals:      0.000 (MW) /      0.000 (MB)
	Size of irrep 3 of <ia|bc> integrals:      0.000 (MW) /      0.000 (MB)
	Size of irrep 4 of <ia|bc> integrals:      0.000 (MW) /      0.000 (MB)
	Size of irrep 5 of <ia|bc> integrals:      0.000 (MW) /      0.000 (MB)
	Size of irrep 6 of <ia|bc> integrals:      0.000 (MW) /      0.000 (MB)
	Size of irrep 7 of <ia|bc> integrals:      0.000 (MW) /      0.000 (MB)
	Total:                                     0.000 (MW) /      0.000 (MB)

	Size of irrep 0 of <Ia|Bc> integrals:      0.004 (MW) /      0.029 (MB)
	Size of irrep 1 of <Ia|Bc> integrals:      0.001 (MW) /      0.006 (MB)
	Size of irrep 2 of <Ia|Bc> integrals:      0.001 (MW) /      0.006 (MB)
	Size of irrep 3 of <Ia|Bc> integrals:      0.001 (MW) /      0.006 (MB)
	Size of irrep 4 of <Ia|Bc> integrals:      0.000 (MW) /      0.003 (MB)
	Size of irrep 5 of <Ia|Bc> integrals:      0.002 (MW) /      0.018 (MB)
	Size of irrep 6 of <Ia|Bc> integrals:      0.002 (MW) /      0.018 (MB)
	Size of irrep 7 of <Ia|Bc> integrals:      0.002 (MW) /      0.018 (MB)
	Total:                                     0.013 (MW) /      0.103 (MB)

	Size of irrep 0 of <iA|bC> integrals:      0.000 (MW) /      0.000 (MB)
	Size of irrep 1 of <iA|bC> integrals:      0.000 (MW) /      0.000 (MB)
	Size of irrep 2 of <iA|bC> integrals:      0.000 (MW) /      0.000 (MB)
	Size of irrep 3 of <iA|bC> integrals:      0.000 (MW) /      0.000 (MB)
	Size of irrep 4 of <iA|bC> integrals:      0.000 (MW) /      0.000 (MB)
	Size of irrep 5 of <iA|bC> integrals:      0.000 (MW) /      0.000 (MB)
	Size of irrep 6 of <iA|bC> integrals:      0.000 (MW) /      0.000 (MB)
	Size of irrep 7 of <iA|bC> integrals:      0.000 (MW) /      0.000 (MB)
	Total:                                     0.000 (MW) /      0.000 (MB)

	Size of irrep 0 of tIjAb amplitudes:       0.000 (MW) /      0.000 (MB)
	Size of irrep 1 of tIjAb amplitudes:       0.000 (MW) /      0.000 (MB)
	Size of irrep 2 of tIjAb amplitudes:       0.000 (MW) /      0.000 (MB)
	Size of irrep 3 of tIjAb amplitudes:       0.000 (MW) /      0.000 (MB)
	Size of irrep 4 of tIjAb amplitudes:       0.000 (MW) /      0.000 (MB)
	Size of irrep 5 of tIjAb amplitudes:       0.000 (MW) /      0.000 (MB)
	Size of irrep 6 of tIjAb amplitudes:       0.000 (MW) /      0.000 (MB)
	Size of irrep 7 of tIjAb amplitudes:       0.000 (MW) /      0.000 (MB)
	Total:                                     0.000 (MW) /      0.000 (MB)

	Nuclear Rep. energy          =      0.00000000000000
	SCF energy                   =     -0.49994832146912
	One-electron energy          =     -0.49994832146912
	Two-electron (AA) energy     =      0.00000000000000
	Two-electron (BB) energy     =      0.00000000000000
	Two-electron (AB) energy     =      0.00000000000000
	Two-electron energy          =      0.00000000000000
	Reference energy             =     -0.49994832146912

*** tstop() called on cqc05 at Thu Aug 20 22:40:44 2020
Module time:
	user time   =       0.08 seconds =       0.00 minutes
	system time =       0.06 seconds =       0.00 minutes
	total time  =          0 seconds =       0.00 minutes
Total time:
	user time   =       0.49 seconds =       0.01 minutes
	system time =       0.08 seconds =       0.00 minutes
	total time  =          0 seconds =       0.00 minutes

*** tstart() called on cqc05
*** at Thu Aug 20 22:40:44 2020

            **************************
            *                        *
            *        CCENERGY        *
            *                        *
            **************************

    Nuclear Rep. energy (wfn)     =    0.000000000000000
    SCF energy          (wfn)     =   -0.499948321469120
    Reference energy    (file100) =   -0.499948321469120

    Input parameters:
    -----------------
    Wave function   =     CCSD
    Reference wfn   =     UHF
    Brueckner       =     No
    Memory (Mbytes) =     250000.0
    Maxiter         =     50
    R_Convergence   =     1.0e-07
    E_Convergence   =     1.0e-06
    Restart         =     Yes
    DIIS            =     Yes
    AO Basis        =     NONE
    ABCD            =     NEW
    Cache Level     =     2
    Cache Type      =     LRU
    Print Level     =     1
    Num. of threads =     4
    # Amps to Print =     10
    Print MP2 Amps? =     No
    Analyze T2 Amps =     No
    Print Pair Ener =     No
    Local CC        =     No
    SCS-MP2         =     False
    SCSN-MP2        =     False
    SCS-CCSD        =     False

MP2 correlation energy -0.0000000000000000
                Solving CC Amplitude Equations
                ------------------------------
  Iter             Energy              RMS        T1Diag      D1Diag    New D1Diag    D2Diag
  ----     ---------------------    ---------   ----------  ----------  ----------   --------
     0        -0.000000000000000    0.000e+00    0.000000    0.000000    0.000000    0.000000
     1        -0.000000000000000    1.845e-09    0.000000    0.000000    0.000000    0.000000
     1        -0.000000000000000    1.845e-09    0.000000    0.000000    0.000000    0.000000

    Iterations converged.

    CCSD corr. energy   =   -0.000000000000000
    PPL corr. energy    =    0.000000000000000
    OS PPL corr. energy =    0.000000000000000
    SS PPL corr. energy =    0.000000000000000
    SCF energy       (wfn)                    =   -0.499948321469120
    Reference energy (file100)                =   -0.499948321469120

    Opposite-spin MP2 correlation energy      =    0.000000000000000
    Same-spin MP2 correlation energy          =    0.000000000000000
    MP2 correlation energy                    =   -0.000000000000000
      * MP2 total energy                      =   -0.499948321469120

    Opposite-spin CCSD correlation energy     =    0.000000000000000
    Same-spin CCSD correlation energy         =    0.000000000000000
    CCSD correlation energy                   =   -0.000000000000000
      * CCSD total energy                     =   -0.499948321469120

*** tstop() called on cqc05 at Thu Aug 20 22:40:44 2020
Module time:
	user time   =       0.02 seconds =       0.00 minutes
	system time =       0.03 seconds =       0.00 minutes
	total time  =          0 seconds =       0.00 minutes
Total time:
	user time   =       0.51 seconds =       0.01 minutes
	system time =       0.11 seconds =       0.00 minutes
	total time  =          0 seconds =       0.00 minutes

*** Psi4 exiting successfully. Buy a developer a beer!
