                               Psi4 1.2a1.dev939

  ==> Input File <==

--------------------------------------------------------------------------
# Any line starting with the # character is a comment line

memory 32000 mb

molecule molecule {
0 1
F          0.0000000000        0.0000000000       -0.0464431179
H          0.0000000000        0.0000000000        0.8753944384
}

set {
  reference rhf
  basis aug-cc-pv(D+d)z
  scf_type OUT_OF_CORE
  freeze_core true
}

energy('ccsd')
--------------------------------------------------------------------------

    Molecular point group: c2v

    Geometry (in Angstrom), charge = 0, multiplicity = 1:

       Center              X                  Y                   Z               Mass
    ------------   -----------------  -----------------  -----------------  -----------------
           F          0.000000000000     0.000000000000    -0.046438086822    18.998403224000
           H          0.000000000000     0.000000000000     0.875399469478     1.007825032070

  Charge       = 0
  Multiplicity = 1
  Basis Set: AUG-CC-PV(D+D)Z
    Blend: AUG-CC-PV(D+D)Z

    Orbital Energies (a.u.)
    -----------------------

    Doubly Occupied:

       1A1   -26.311014     2A1    -1.605843     3A1    -0.769382
       1B1    -0.650275     1B2    -0.650275

  @RHF Final Energy:  -100.03324249760529

   => Energetics <=

    Nuclear Repulsion Energy =              5.1664144563883188
    One-Electron Energy =                -150.4257363069887106
    Two-Electron Energy =                  45.2260793529951144
    PCM Polarization Energy =               0.0000000000000000
    Total Energy =                       -100.0332424976052863
      * MP2 total energy                      = -100.255794864679146
      * CCSD total energy                     = -100.259476213061376
*** Psi4 exiting successfully. Buy a developer a beer!
