                               Psi4 1.4a3.dev88

  ==> Input File <==

--------------------------------------------------------------------------
# Any line starting with the # character is a comment line
memory 250000 mb
molecule molecule{
-1 1
F          0.0000000000        0.0000000000        0.0000000000
}

set {
  reference rhf
  basis aug-cc-pV(6+d)Z
  scf_type OUT_OF_CORE
  freeze_core true
}

energy('ccsd(t)')
--------------------------------------------------------------------------

    Molecular point group: d2h
    Geometry (in Angstrom), charge = -1, multiplicity = 1:

       Center              X                  Y                   Z               Mass
    ------------   -----------------  -----------------  -----------------  -----------------
         F            0.000000000000     0.000000000000     0.000000000000    18.998403162730

  Charge       = -1
  Multiplicity = 1
  Basis Set: AUG-CC-PV(6+D)Z
    Blend: AUG-CC-PV(6+D)Z

    Orbital Energies [Eh]
    ---------------------

    Doubly Occupied:

       1Ag   -25.829613     2Ag    -1.074581     1B1u   -0.180980
       1B2u   -0.180980     1B3u   -0.180980

  @RHF Final Energy:   -99.45943018797499

   => Energetics <=

    Nuclear Repulsion Energy =              0.0000000000000000
    One-Electron Energy =                -144.0245962580345633
    Two-Electron Energy =                  44.5651660700595755
    Total Energy =                        -99.4594301879749878

  Dipole Moment: [D]
     X:     0.0000      Y:     0.0000      Z:     0.0000     Total:     0.0000

      * MP2 total energy                      =  -99.789970989883628
      * CCSD total energy                     =  -99.778066190995901
      * CCSD(T) total energy                  =  -99.789890741911762
*** Psi4 exiting successfully. Buy a developer a beer!
