                               Psi4 1.2a1.dev939

  ==> Input File <==

--------------------------------------------------------------------------
# Any line starting with the # character is a comment line
memory 250000 mb
molecule molecule{
1 2
Cl         0.0000000000        0.0000000000        0.0362353546
H          0.0000000000        0.0000000000       -1.2745322422
}

set {
  reference uhf
  basis aug-cc-pv(6+d)z
  scf_type OUT_OF_CORE
  freeze_core true
}

energy('ccsd')
--------------------------------------------------------------------------

    Molecular point group: c2v

    Geometry (in Angstrom), charge = 1, multiplicity = 2:

       Center              X                  Y                   Z               Mass
    ------------   -----------------  -----------------  -----------------  -----------------
          CL          0.000000000000     0.000000000000     0.036718910117    34.968852682000
           H          0.000000000000     0.000000000000    -1.274048686683     1.007825032070

  Charge       = 1
  Multiplicity = 2
  Basis Set: AUG-CC-PV(6+D)Z
    Blend: AUG-CC-PV(6+D)Z

    Orbital Energies (a.u.)
    -----------------------

    Alpha Occupied:

       1A1  -105.302431     2A1   -11.020953     1B1    -8.507408
       3A1    -8.482888     1B2    -8.481310     4A1    -1.550645
       5A1    -0.999752     2B1    -0.950260     2B2    -0.869344

    Alpha Virtual:

       6A1    -0.173618     7A1    -0.107275     3B1    -0.085118
       8A1    -0.083911     3B2    -0.078656     4B1    -0.042905
       9A1    -0.040481     4B2    -0.032082     1A2    -0.007656
      10A1    -0.006601    11A1     0.023647     5B1     0.064250
       5B2     0.074367    12A1     0.074691    13A1     0.102656
       6B1     0.103521     6B2     0.117064    14A1     0.142449
       7B1     0.190620     2A2     0.199701    15A1     0.199984
       7B2     0.203233    16A1     0.244729     3A2     0.246644
      17A1     0.278134     8B1     0.306774     8B2     0.320826
       9B1     0.321766     9B2     0.322434    18A1     0.381684
      19A1     0.402676    10B1     0.411922    10B2     0.420871
      20A1     0.430092     4A2     0.441942    21A1     0.444539
      22A1     0.614276    11B1     0.635241    11B2     0.657791
      12B1     0.750532    12B2     0.750762    13B1     0.766206
      23A1     0.779181     5A2     0.779185    13B2     0.779600
      24A1     0.789390     6A2     0.789496    25A1     0.828487
      14B1     0.835067    14B2     0.862646    26A1     0.894650
       7A2     0.897861    27A1     0.906675    28A1     0.930699
      15B1     0.952231    15B2     0.960429    29A1     1.003392
       8A2     1.004203    16B1     1.011054    16B2     1.011106
      30A1     1.022715    17B1     1.091220    17B2     1.097630
      18B1     1.105557    18B2     1.120047    31A1     1.154136
       9A2     1.166449    32A1     1.175296    19B1     1.286801
      19B2     1.303450    33A1     1.328277    34A1     1.565494
      10A2     1.736525    35A1     1.736544    20B1     1.777608
      20B2     1.793046    36A1     1.825310    11A2     1.888061
      37A1     1.888061    21B1     2.031624    21B2     2.046781
      22B1     2.106027    22B2     2.106116    23B1     2.119275
      23B2     2.119276    38A1     2.133985    12A2     2.134378
      39A1     2.143912    13A2     2.144232    40A1     2.182798
      24B1     2.223095    24B2     2.235198    25B1     2.236105
      41A1     2.239006    25B2     2.248114    14A2     2.257297
      42A1     2.259753    43A1     2.372979    15A2     2.372979
      44A1     2.379196    26B1     2.379700    26B2     2.391851
      27B1     2.435073    27B2     2.435106    45A1     2.511402
      28B1     2.517533    29B1     2.543695    28B2     2.562010
      29B2     2.569663    46A1     2.576932    16A2     2.578373
      30B1     2.582294    30B2     2.593408    17A2     2.607626
      47A1     2.608859    48A1     2.693228    49A1     2.796226
      31B1     2.818340    31B2     2.841717    18A2     2.876998
      50A1     2.879019    51A1     3.068929    32B1     3.549623
      32B2     3.572656    33B1     3.616247    33B2     3.616276
      52A1     3.871767    19A2     3.872919    53A1     3.917941
      34B1     4.037786    34B2     4.037786    54A1     4.193508
      35B1     4.200184    35B2     4.221212    36B1     4.426711
      20A2     4.428283    55A1     4.428283    36B2     4.449975
      56A1     4.500085    21A2     4.500201    57A1     4.523145
      37B1     4.547647    37B2     4.547798    38B1     4.642264
      22A2     4.655646    58A1     4.655672    38B2     4.667388
      23A2     4.683667    59A1     4.684514    60A1     4.730430
      24A2     4.851547    61A1     4.851547    62A1     4.888143
      39B1     4.987553    39B2     5.002934    40B1     5.003033
      40B2     5.003728    25A2     5.018106    63A1     5.019520
      41B1     5.043003    41B2     5.043003    26A2     5.075311
      64A1     5.075314    42B1     5.108966    42B2     5.108994
      65A1     5.164223    43B1     5.182213    43B2     5.182243
      66A1     5.450435    27A2     5.454630    44B1     5.535874
      67A1     5.546580    28A2     5.546589    45B1     5.556111
      68A1     5.563341    44B2     5.563461    45B2     5.591813
      46B1     5.609002    46B2     5.610543    47B1     5.674661
      47B2     5.675062    69A1     5.705549    29A2     5.706487
      70A1     5.896289    30A2     5.948916    71A1     5.949517
      72A1     6.302180    73A1     6.391163    48B1     6.458916
      48B2     6.487498    49B1     6.623921    49B2     6.653516
      31A2     6.870946    74A1     6.871658    50B1     7.159437
      32A2     7.171736    75A1     7.171736    50B2     7.198326
      76A1     7.365891    51B1     8.096689    51B2     8.124687
      52B1     8.131589    52B2     8.133781    77A1     8.357493
      78A1     8.596192    33A2     8.597318    79A1     8.692130
      53B1     8.749979    53B2     8.779963    80A1     9.269896
      34A2     9.491581    81A1     9.491659    35A2     9.515959
      82A1     9.516458    54B1     9.524822    54B2     9.524829
      55B1     9.701543    55B2     9.701554    83A1     9.892198
      36A2     9.912723    84A1     9.915130    56B1    10.021060
      56B2    10.042326    57B1    10.359858    57B2    10.389303
      85A1    10.409861    37A2    10.480080    86A1    10.480746
      38A2    10.591431    87A1    10.591431    58B1    10.631814
      58B2    10.631814    59B1    10.723291    59B2    10.752026
      39A2    10.793749    88A1    10.793749    60B1    10.842101
      60B2    10.842110    61B1    10.862376    61B2    10.862415
      89A1    10.907549    40A2    10.907552    90A1    11.148794
      41A2    11.152334    62B1    11.153012    62B2    11.153037
      91A1    11.290479    92A1    11.604453    42A2    11.847628
      93A1    11.849383    63B1    11.996184    63B2    12.007135
      64B1    12.008863    64B2    12.027283    65B1    12.076277
      65B2    12.102691    94A1    12.223863    43A2    12.224497
      95A1    12.320938    66B1    12.884968    66B2    12.910906
      96A1    12.943883    44A2    13.224385    97A1    13.224945
      67B1    13.529431    67B2    13.557942    98A1    14.024560
      68B1    14.545802    68B2    14.568762    99A1    15.607251
      69B1    17.105673    69B2    17.105673    45A2    17.215427
     100A1    17.215427   101A1    17.379132    70B1    17.500712
      70B2    17.500712    46A2    18.312885   102A1    18.312931
      71B1    19.282818    71B2    19.294203   103A1    19.393110
      47A2    19.900651   104A1    19.900651    72B1    20.425788
      72B2    20.425788    73B1    21.264010    73B2    21.268688
     105A1    21.337170    48A2    21.337181   106A1    21.630994
     107A1    22.648134    49A2    22.727687   108A1    22.727699
      74B1    23.625003    74B2    23.625003    50A2    24.118614
     109A1    24.118619    75B1    24.151751    75B2    24.156572
     110A1    24.300684    76B1    25.094711    76B2    25.100143
     111A1    25.470056    77B1    34.489352    77B2    34.493357
      78B1    35.434916    78B2    35.461692   112A1    36.807531
     113A1    38.819511    51A2    38.820006   114A1    38.992476
      79B1    39.353082    79B2    39.373171   115A1    40.908355
     116A1   287.008374

    Beta Occupied:

       1A1  -105.289130     2A1   -11.008243     3A1    -8.475785
       1B2    -8.474574     1B1    -8.452594     4A1    -1.434007
       5A1    -0.979620     2B2    -0.844979

    Beta Virtual:

       2B1    -0.375698     6A1    -0.163359     7A1    -0.100715
       8A1    -0.082628     3B2    -0.078132     3B1    -0.074595
       9A1    -0.037707     4B2    -0.032025     4B1    -0.029454
      10A1     0.009232     1A2     0.009670    11A1     0.028326
       5B2     0.075065    12A1     0.076997     5B1     0.079667
      13A1     0.103564     6B2     0.118632     6B1     0.129146
      14A1     0.146129     7B2     0.203875     2A2     0.206021
      15A1     0.206042     7B1     0.207484    16A1     0.278705
       3A2     0.291923    17A1     0.295663     8B2     0.322705
       8B1     0.325049     9B2     0.325320     9B1     0.332462
      18A1     0.386612    19A1     0.408148    10B1     0.415047
      10B2     0.420830    20A1     0.434004     4A2     0.445886
      21A1     0.446803    22A1     0.621825    11B2     0.661961
      11B1     0.673079    12B1     0.752403    12B2     0.752453
      13B1     0.776743    13B2     0.780246    23A1     0.781660
       5A2     0.781660    24A1     0.791715     6A2     0.791804
      25A1     0.832878    14B2     0.864452    14B1     0.869389
      26A1     0.909802     7A2     0.919057    27A1     0.919120
      28A1     0.931498    15B1     0.953662    15B2     0.960600
      16B1     1.012814    16B2     1.012840     8A2     1.022886
      29A1     1.022979    30A1     1.025501    17B1     1.112124
      17B2     1.116623    18B1     1.120217    18B2     1.121615
      31A1     1.169488     9A2     1.179289    32A1     1.180567
      19B1     1.302277    19B2     1.304789    33A1     1.337106
      34A1     1.569712    35A1     1.739023    10A2     1.739083
      20B1     1.784215    20B2     1.793322    36A1     1.826225
      11A2     1.890239    37A1     1.890239    21B1     2.041357
      21B2     2.047737    22B1     2.116029    22B2     2.116051
      23B1     2.124508    23B2     2.124508    38A1     2.142477
      12A2     2.142646    39A1     2.153331    13A2     2.153346
      40A1     2.188618    24B1     2.233827    24B2     2.236704
      25B1     2.238084    41A1     2.247324    25B2     2.249268
      14A2     2.264994    42A1     2.266021    43A1     2.376093
      15A2     2.376093    26B1     2.386552    44A1     2.389632
      26B2     2.392510    27B1     2.437831    27B2     2.437838
      45A1     2.514657    28B1     2.563942    28B2     2.568338
      29B1     2.573831    29B2     2.584960    46A1     2.594327
      16A2     2.594403    30B1     2.613304    30B2     2.613561
      47A1     2.625204    17A2     2.625453    48A1     2.698239
      49A1     2.805276    31B1     2.827880    31B2     2.843168
      18A2     2.885794    50A1     2.886272    51A1     3.071732
      32B1     3.562024    32B2     3.574396    33B1     3.618744
      33B2     3.618756    52A1     3.874140    19A2     3.874740
      53A1     3.921052    34B1     4.039509    34B2     4.039509
      54A1     4.194616    35B1     4.208535    35B2     4.221643
      20A2     4.431959    55A1     4.431959    36B1     4.437614
      36B2     4.451517    56A1     4.507118    21A2     4.507243
      57A1     4.531126    37B1     4.562254    37B2     4.562296
      38B1     4.651211    38B2     4.667993    22A2     4.680470
      58A1     4.680481    23A2     4.691499    59A1     4.691857
      60A1     4.738662    24A2     4.860555    61A1     4.860555
      62A1     4.894044    39B1     4.993357    39B2     5.004474
      40B1     5.016515    40B2     5.016516    25A2     5.023149
      63A1     5.023681    41B1     5.052740    41B2     5.052740
      26A2     5.087478    64A1     5.087478    42B1     5.115529
      42B2     5.115538    65A1     5.169370    43B1     5.191123
      43B2     5.191133    66A1     5.464289    27A2     5.466228
      44B1     5.549828    67A1     5.551346    28A2     5.551349
      44B2     5.565923    68A1     5.569678    45B1     5.571625
      45B2     5.594993    46B1     5.615046    46B2     5.615819
      47B1     5.698349    47B2     5.698392    69A1     5.715487
      29A2     5.715751    70A1     5.903910    30A2     5.964259
      71A1     5.964433    72A1     6.306584    73A1     6.396846
      48B1     6.469061    48B2     6.488531    49B1     6.634771
      49B2     6.654466    31A2     6.880711    74A1     6.881023
      32A2     7.172688    75A1     7.172688    50B1     7.184047
      50B2     7.201582    76A1     7.369167    51B1     8.117360
      51B2     8.128705    52B1     8.135119    52B2     8.136168
      77A1     8.361115    78A1     8.599279    33A2     8.599854
      79A1     8.696889    53B1     8.764392    53B2     8.782139
      80A1     9.275155    34A2     9.512641    81A1     9.512719
      35A2     9.523785    82A1     9.523965    54B1     9.531851
      54B2     9.531852    55B1     9.709941    55B2     9.709944
      83A1     9.895214    36A2     9.915595    84A1     9.917009
      56B1    10.028140    56B2    10.043012    57B1    10.369372
      57B2    10.390231    85A1    10.413188    37A2    10.482533
      86A1    10.482992    38A2    10.607802    87A1    10.607802
      58B1    10.645694    58B2    10.645694    59B1    10.733286
      59B2    10.753691    39A2    10.806365    88A1    10.806365
      60B1    10.862272    60B2    10.862275    61B1    10.873787
      61B2    10.873798    89A1    10.922515    40A2    10.922516
      90A1    11.159719    41A2    11.161541    62B1    11.162609
      62B2    11.162617    91A1    11.295363    92A1    11.610145
      42A2    11.855819    93A1    11.856871    63B1    12.004371
      63B2    12.017852    64B1    12.019166    64B2    12.028161
      65B1    12.083638    65B2    12.103452    94A1    12.231448
      43A2    12.231820    95A1    12.326490    66B1    12.892981
      66B2    12.911644    96A1    12.948427    44A2    13.238791
      97A1    13.239014    67B1    13.539103    67B2    13.559325
      98A1    14.028704    68B1    14.553700    68B2    14.569731
      99A1    15.612501    69B2    17.105504    69B1    17.105504
     100A1    17.215498    45A2    17.215498   101A1    17.383300
      70B1    17.501134    70B2    17.501134    46A2    18.313723
     102A1    18.313750    71B1    19.284510    71B2    19.293971
     103A1    19.394754   104A1    19.900219    47A2    19.900219
      72B1    20.425534    72B2    20.425534    73B1    21.263934
      73B2    21.268067   105A1    21.336865    48A2    21.336877
     106A1    21.630857   107A1    22.647411    49A2    22.726932
     108A1    22.726940    74B1    23.624325    74B2    23.624325
      50A2    24.118058   109A1    24.118062    75B1    24.151406
      75B2    24.155681   110A1    24.300072    76B1    25.094712
      76B2    25.099484   111A1    25.469533    77B1    34.490003
      77B2    34.492506    78B1    35.465960    78B2    35.466097
     112A1    36.806958    51A2    38.838119   113A1    38.838128
     114A1    38.999347    79B1    39.371108    79B2    39.376632
     115A1    40.913176   116A1   287.013523

    Final Occupation by Irrep:
             A1    A2    B1    B2
    DOCC [     5,    0,    1,    2 ]
    SOCC [     0,    0,    1,    0 ]

  Energy converged.

  @UHF Final Energy:  -459.68991339560307

   => Energetics <=

    Nuclear Repulsion Energy =              6.8631636668408067
    One-Electron Energy =                -641.9822296863982274
    Two-Electron Energy =                 175.4291526239543373
    Total Energy =                       -459.6899133956030710

  UHF NO Occupations:
  HONO-2 :    4 A1 1.9995228
  HONO-1 :    5 A1 1.9946722
  HONO-0 :    2 B1 1.0000000
  LUNO+0 :    6 A1 0.0053278
  LUNO+1 :    7 A1 0.0004772
  LUNO+2 :    3 B2 0.0003682
  LUNO+3 :    3 B1 0.0000053

Properties will be evaluated at   0.000000,   0.000000,   0.000000 Bohr

Properties computed using the SCF density matrix

  Nuclear Dipole Moment: (a.u.)
     X:     0.0000      Y:     0.0000      Z:    -1.2280

  Electronic Dipole Moment: (a.u.)
     X:     0.0000      Y:     0.0000      Z:     0.5373

  Dipole Moment: (a.u.)
     X:     0.0000      Y:     0.0000      Z:    -0.6907     Total:     0.6907

  Dipole Moment: (Debye)
     X:     0.0000      Y:     0.0000      Z:    -1.7557     Total:     1.7557

*** tstop() called on n412-071.vsc4.prov at Fri Oct 30 19:59:15 2020
Module time:
	user time   =     670.87 seconds =      11.18 minutes
	system time =      37.39 seconds =       0.62 minutes
	total time  =        589 seconds =       9.82 minutes
Total time:
	user time   =     670.87 seconds =      11.18 minutes
	system time =      37.39 seconds =       0.62 minutes
	total time  =        589 seconds =       9.82 minutes

*** tstart() called on n412-071.vsc4.prov
*** at Fri Oct 30 19:59:15 2020

	Wfn Parameters:
	--------------------
	Wavefunction         = CCSD
	Number of irreps     = 4
	Number of MOs        = 325
	Number of active MOs = 320
	AO-Basis             = NONE
	Semicanonical        = false
	Reference            = UHF
	Print Level          = 1

	IRREP	# MOs	# FZDC	# DOCC	# SOCC	# VIRT	# FZVR
	-----	-----	------	------	------	------	------
	 A1	   116	    3	    2	    0	    111	    0
	 A2	   51	    0	    0	    0	    51	    0
	 B1	   79	    1	    0	    1	    77	    0
	 B2	   79	    1	    1	    0	    77	    0
	Transforming integrals...
	IWL integrals will be deleted.
	(OO|OO)...
	Presorting SO-basis two-electron integrals.
	Sorting File: SO Ints (nn|nn) nbuckets = 1
	Transforming the one-electron integrals and constructing Fock matrices
	Starting AA/AB first half-transformation.
	Sorting AA/AB half-transformed integrals.
	Starting BB first half-transformation.
	Sorting BB half-transformed integrals.
	First half integral transformation complete.
	Starting AA second half-transformation.
	Starting AB second half-transformation.
	Starting BB second half-transformation.
	Two-electron integral transformation complete.
	(OO|OV)...
	Starting AA second half-transformation.
	Starting AB second half-transformation.
	Starting BB second half-transformation.
	Two-electron integral transformation complete.
	(OO|VV)...
	Starting AA second half-transformation.
	Starting AB second half-transformation.
	Starting BB second half-transformation.
	Two-electron integral transformation complete.
	(OV|OO)...
	Starting AA/AB first half-transformation.
	Sorting AA/AB half-transformed integrals.
	Starting BB first half-transformation.
	Sorting BB half-transformed integrals.
	First half integral transformation complete.
	Starting AA second half-transformation.
	Starting AB second half-transformation.
	Starting BB second half-transformation.
	Two-electron integral transformation complete.
	(OV|OV)...
	Starting AA second half-transformation.
	Starting AB second half-transformation.
	Starting BB second half-transformation.
	Two-electron integral transformation complete.
	(OV|VV)...
	Starting AA second half-transformation.
	Starting AB second half-transformation.
	Starting BB second half-transformation.
	Two-electron integral transformation complete.
	(VV|OO)...
	Starting AA/AB first half-transformation.
	Sorting AA/AB half-transformed integrals.
	Starting BB first half-transformation.
	Sorting BB half-transformed integrals.
	First half integral transformation complete.
	Starting AA second half-transformation.
	Starting AB second half-transformation.
	Starting BB second half-transformation.
	Two-electron integral transformation complete.
	(VV|OV)...
	Starting AA second half-transformation.
	Starting AB second half-transformation.
	Starting BB second half-transformation.
	Two-electron integral transformation complete.
	(VV|VV)...
	Starting AA second half-transformation.
	Starting AB second half-transformation.
	Starting BB second half-transformation.
	Two-electron integral transformation complete.
	Frozen core energy     =   -448.78516014805592

	Size of irrep 0 of <AB|CD> integrals:    175.086 (MW) /   1400.687 (MB)
	Size of irrep 1 of <AB|CD> integrals:    134.328 (MW) /   1074.625 (MB)
	Size of irrep 2 of <AB|CD> integrals:    155.601 (MW) /   1244.805 (MB)
	Size of irrep 3 of <AB|CD> integrals:    155.601 (MW) /   1244.805 (MB)
	Total:                                   620.615 (MW) /   4964.922 (MB)

	Size of irrep 0 of <ab|cd> integrals:    177.129 (MW) /   1417.036 (MB)
	Size of irrep 1 of <ab|cd> integrals:    136.119 (MW) /   1088.951 (MB)
	Size of irrep 2 of <ab|cd> integrals:    158.382 (MW) /   1267.058 (MB)
	Size of irrep 3 of <ab|cd> integrals:    156.876 (MW) /   1255.005 (MB)
	Total:                                   628.506 (MW) /   5028.050 (MB)

	Size of irrep 0 of <Ab|Cd> integrals:    721.298 (MW) /   5770.388 (MB)
	Size of irrep 1 of <Ab|Cd> integrals:    540.888 (MW) /   4327.104 (MB)
	Size of irrep 2 of <Ab|Cd> integrals:    627.953 (MW) /   5023.628 (MB)
	Size of irrep 3 of <Ab|Cd> integrals:    624.950 (MW) /   4999.600 (MB)
	Total:                                  2515.090 (MW) /  20120.720 (MB)

	Size of irrep 0 of <IA|BC> integrals:     10.069 (MW) /     80.554 (MB)
	Size of irrep 1 of <IA|BC> integrals:      5.934 (MW) /     47.473 (MB)
	Size of irrep 2 of <IA|BC> integrals:      7.884 (MW) /     63.069 (MB)
	Size of irrep 3 of <IA|BC> integrals:      7.884 (MW) /     63.069 (MB)
	Total:                                    31.770 (MW) /    254.164 (MB)

      * MP2 total energy                      = -459.876334253205130
      * CCSD total energy                     = -459.897178239431696
*** Psi4 exiting successfully. Buy a developer a beer!
