                               Psi4 1.2a1.dev938

  ==> Input File <==

--------------------------------------------------------------------------
# Any line starting with the # character is a comment line
memory 250000 mb
molecule molecule{
1 2
Cl         0.0000000000        0.0000000000        0.0362353546
H          0.0000000000        0.0000000000       -1.2745322422
}

set {
  reference uhf
  basis aug-cc-pv(d+d)z
  scf_type OUT_OF_CORE
  freeze_core true
}

energy('ccsd')
--------------------------------------------------------------------------

    Molecular point group: c2v

    Geometry (in Angstrom), charge = 1, multiplicity = 2:

       Center              X                  Y                   Z               Mass
    ------------   -----------------  -----------------  -----------------  -----------------
          CL          0.000000000000     0.000000000000     0.036718910117    34.968852682000
           H          0.000000000000     0.000000000000    -1.274048686683     1.007825032070

  Charge       = 1
  Multiplicity = 2
  Basis Set: AUG-CC-PV(D+D)Z
    Blend: AUG-CC-PV(D+D)Z

    Orbital Energies (a.u.)
    -----------------------

    Alpha Occupied:

       1A1  -105.302502     2A1   -11.021803     1B1    -8.507778
       3A1    -8.483894     1B2    -8.480244     4A1    -1.552790
       5A1    -1.001564     2B1    -0.948771     2B2    -0.869864

    Alpha Virtual:

       6A1    -0.173382     7A1    -0.094045     3B1    -0.065408
       8A1    -0.063809     3B2    -0.054811     9A1     0.003557
       4B1     0.020135     4B2     0.041878     1A2     0.111036
      10A1     0.111400    11A1     0.211907     5B1     0.283666
       5B2     0.306360    12A1     0.326018     6B1     0.550764
      13A1     0.572748     6B2     0.592673    14A1     0.704782
      15A1     0.879848     2A2     0.883587     7B1     0.927979
       7B2     0.964073    16A1     0.986148    17A1     1.423184
       8B1     1.481091     8B2     1.494739    18A1     2.008327
      19A1     5.516132     3A2     5.518077     9B1     5.562391
       9B2     5.593507    20A1     5.685143

    Beta Occupied:

       1A1  -105.289949     2A1   -11.008790     3A1    -8.476713
       1B2    -8.473400     1B1    -8.454946     4A1    -1.435669
       5A1    -0.980173     2B2    -0.842235

    Beta Virtual:

       2B1    -0.381242     6A1    -0.163442     7A1    -0.085192
       8A1    -0.062113     3B2    -0.053547     3B1    -0.047637
       9A1     0.009045     4B2     0.043493     4B1     0.053924
      10A1     0.166819     1A2     0.166945    11A1     0.223669
       5B2     0.309845     5B1     0.319836    12A1     0.332161
      13A1     0.576607     6B2     0.601080     6B1     0.631027
      14A1     0.715397     2A2     0.938052    15A1     0.938751
       7B2     0.969715     7B1     0.971115    16A1     1.001460
      17A1     1.439754     8B1     1.489843     8B2     1.493262
      18A1     2.012996    19A1     5.529375     3A2     5.530311
       9B1     5.574681     9B2     5.595681    20A1     5.689908

    Final Occupation by Irrep:
             A1    A2    B1    B2
    DOCC [     5,    0,    1,    2 ]
    SOCC [     0,    0,    1,    0 ]

  Energy converged.

  @UHF Final Energy:  -459.66906834780406

   => Energetics <=

    Nuclear Repulsion Energy =              6.8631636668408067
    One-Electron Energy =                -641.9333777645392729
    Two-Electron Energy =                 175.4011457498944253
    PCM Polarization Energy =               0.0000000000000000
    Total Energy =                       -459.6690683478040000

    Alert: EFP and PCM quantities not currently incorporated into SCF psivars.
  UHF NO Occupations:
  HONO-2 :    4 A1 1.9996647
  HONO-1 :    5 A1 1.9954652
  HONO-0 :    2 B1 1.0000000
  LUNO+0 :    6 A1 0.0045348
  LUNO+1 :    7 A1 0.0003353
  LUNO+2 :    3 B2 0.0001027
  LUNO+3 :    3 B1 0.0000009

Properties will be evaluated at   0.000000,   0.000000,   0.000000 Bohr

Properties computed using the SCF density matrix

  Nuclear Dipole Moment: (a.u.)
     X:     0.0000      Y:     0.0000      Z:    -1.2280

  Electronic Dipole Moment: (a.u.)
     X:     0.0000      Y:     0.0000      Z:     0.5265

  Dipole Moment: (a.u.)
     X:     0.0000      Y:     0.0000      Z:    -0.7015     Total:     0.7015

  Dipole Moment: (Debye)
     X:     0.0000      Y:     0.0000      Z:    -1.7829     Total:     1.7829

*** tstop() called on cqc05 at Thu Aug 20 19:54:17 2020
Module time:
	user time   =       0.49 seconds =       0.01 minutes
	system time =       0.02 seconds =       0.00 minutes
	total time  =          1 seconds =       0.02 minutes
Total time:
	user time   =       0.49 seconds =       0.01 minutes
	system time =       0.02 seconds =       0.00 minutes
	total time  =          1 seconds =       0.02 minutes

*** tstart() called on cqc05
*** at Thu Aug 20 19:54:17 2020

	Wfn Parameters:
	--------------------
	Wavefunction         = CCSD
	Number of irreps     = 4
	Number of MOs        = 41
	Number of active MOs = 36
	AO-Basis             = NONE
	Semicanonical        = false
	Reference            = UHF
	Print Level          = 1

	IRREP	# MOs	# FZDC	# DOCC	# SOCC	# VIRT	# FZVR
	-----	-----	------	------	------	------	------
	 A1	   20	    3	    2	    0	    15	    0
	 A2	   3	    0	    0	    0	    3	    0
	 B1	   9	    1	    0	    1	    7	    0
	 B2	   9	    1	    1	    0	    7	    0
	Transforming integrals...
	IWL integrals will be deleted.
	(OO|OO)...
	Presorting SO-basis two-electron integrals.
	Sorting File: SO Ints (nn|nn) nbuckets = 1
	Transforming the one-electron integrals and constructing Fock matrices
	Starting AA/AB first half-transformation.
	Sorting AA/AB half-transformed integrals.
	Starting BB first half-transformation.
	Sorting BB half-transformed integrals.
	First half integral transformation complete.
	Starting AA second half-transformation.
	Starting AB second half-transformation.
	Starting BB second half-transformation.
	Two-electron integral transformation complete.
	(OO|OV)...
	Starting AA second half-transformation.
	Starting AB second half-transformation.
	Starting BB second half-transformation.
	Two-electron integral transformation complete.
	(OO|VV)...
	Starting AA second half-transformation.
	Starting AB second half-transformation.
	Starting BB second half-transformation.
	Two-electron integral transformation complete.
	(OV|OO)...
	Starting AA/AB first half-transformation.
	Sorting AA/AB half-transformed integrals.
	Starting BB first half-transformation.
	Sorting BB half-transformed integrals.
	First half integral transformation complete.
	Starting AA second half-transformation.
	Starting AB second half-transformation.
	Starting BB second half-transformation.
	Two-electron integral transformation complete.
	(OV|OV)...
	Starting AA second half-transformation.
	Starting AB second half-transformation.
	Starting BB second half-transformation.
	Two-electron integral transformation complete.
	(OV|VV)...
	Starting AA second half-transformation.
	Starting AB second half-transformation.
	Starting BB second half-transformation.
	Two-electron integral transformation complete.
	(VV|OO)...
	Starting AA/AB first half-transformation.
	Sorting AA/AB half-transformed integrals.
	Starting BB first half-transformation.
	Sorting BB half-transformed integrals.
	First half integral transformation complete.
	Starting AA second half-transformation.
	Starting AB second half-transformation.
	Starting BB second half-transformation.
	Two-electron integral transformation complete.
	(VV|OV)...
	Starting AA second half-transformation.
	Starting AB second half-transformation.
	Starting BB second half-transformation.
	Two-electron integral transformation complete.
	(VV|VV)...
	Starting AA second half-transformation.
	Starting AB second half-transformation.
	Starting BB second half-transformation.
	Two-electron integral transformation complete.
	Frozen core energy     =   -448.77446693217200

	Size of irrep 0 of <AB|CD> integrals:      0.022 (MW) /      0.180 (MB)
	Size of irrep 1 of <AB|CD> integrals:      0.009 (MW) /      0.071 (MB)
	Size of irrep 2 of <AB|CD> integrals:      0.016 (MW) /      0.127 (MB)
	Size of irrep 3 of <AB|CD> integrals:      0.016 (MW) /      0.127 (MB)
	Total:                                     0.063 (MW) /      0.505 (MB)

	Size of irrep 0 of <ab|cd> integrals:      0.025 (MW) /      0.197 (MB)
	Size of irrep 1 of <ab|cd> integrals:      0.010 (MW) /      0.082 (MB)
	Size of irrep 2 of <ab|cd> integrals:      0.020 (MW) /      0.159 (MB)
	Size of irrep 3 of <ab|cd> integrals:      0.017 (MW) /      0.133 (MB)
	Total:                                     0.071 (MW) /      0.571 (MB)

	Size of irrep 0 of <Ab|Cd> integrals:      0.115 (MW) /      0.919 (MB)
	Size of irrep 1 of <Ab|Cd> integrals:      0.038 (MW) /      0.304 (MB)
	Size of irrep 2 of <Ab|Cd> integrals:      0.071 (MW) /      0.570 (MB)
	Size of irrep 3 of <Ab|Cd> integrals:      0.065 (MW) /      0.520 (MB)
	Total:                                     0.289 (MW) /      2.314 (MB)

	Size of irrep 0 of <IA|BC> integrals:      0.015 (MW) /      0.117 (MB)
	Size of irrep 1 of <IA|BC> integrals:      0.004 (MW) /      0.030 (MB)
	Size of irrep 2 of <IA|BC> integrals:      0.008 (MW) /      0.065 (MB)
	Size of irrep 3 of <IA|BC> integrals:      0.008 (MW) /      0.065 (MB)
	Total:                                     0.034 (MW) /      0.276 (MB)

	Size of irrep 0 of <ia|bc> integrals:      0.013 (MW) /      0.103 (MB)
	Size of irrep 1 of <ia|bc> integrals:      0.003 (MW) /      0.023 (MB)
	Size of irrep 2 of <ia|bc> integrals:      0.005 (MW) /      0.043 (MB)
	Size of irrep 3 of <ia|bc> integrals:      0.007 (MW) /      0.060 (MB)
	Total:                                     0.029 (MW) /      0.228 (MB)

	Size of irrep 0 of <Ia|Bc> integrals:      0.015 (MW) /      0.122 (MB)
	Size of irrep 1 of <Ia|Bc> integrals:      0.004 (MW) /      0.033 (MB)
	Size of irrep 2 of <Ia|Bc> integrals:      0.009 (MW) /      0.073 (MB)
	Size of irrep 3 of <Ia|Bc> integrals:      0.008 (MW) /      0.065 (MB)
	Total:                                     0.037 (MW) /      0.293 (MB)

	Size of irrep 0 of <iA|bC> integrals:      0.013 (MW) /      0.100 (MB)
	Size of irrep 1 of <iA|bC> integrals:      0.003 (MW) /      0.020 (MB)
	Size of irrep 2 of <iA|bC> integrals:      0.005 (MW) /      0.036 (MB)
	Size of irrep 3 of <iA|bC> integrals:      0.007 (MW) /      0.059 (MB)
	Total:                                     0.027 (MW) /      0.216 (MB)

	Size of irrep 0 of tIjAb amplitudes:       0.002 (MW) /      0.014 (MB)
	Size of irrep 1 of tIjAb amplitudes:       0.000 (MW) /      0.002 (MB)
	Size of irrep 2 of tIjAb amplitudes:       0.001 (MW) /      0.004 (MB)
	Size of irrep 3 of tIjAb amplitudes:       0.001 (MW) /      0.008 (MB)
	Total:                                     0.003 (MW) /      0.028 (MB)

	Nuclear Rep. energy          =      6.86316366684081
	SCF energy                   =   -459.66906834780406
	One-electron energy          =    -27.88446277288608
	Two-electron (AA) energy     =      2.62030141028122
	Two-electron (BB) energy     =      1.25316007726632
	Two-electron (AB) energy     =      6.25323620286468
	Two-electron energy          =     10.12669769041222
	Reference energy             =   -459.66906834780502

*** tstop() called on cqc05 at Thu Aug 20 19:54:17 2020
Module time:
	user time   =       0.06 seconds =       0.00 minutes
	system time =       0.08 seconds =       0.00 minutes
	total time  =          0 seconds =       0.00 minutes
Total time:
	user time   =       0.55 seconds =       0.01 minutes
	system time =       0.10 seconds =       0.00 minutes
	total time  =          1 seconds =       0.02 minutes

*** tstart() called on cqc05
*** at Thu Aug 20 19:54:17 2020

            **************************
            *                        *
            *        CCENERGY        *
            *                        *
            **************************

    Nuclear Rep. energy (wfn)     =    6.863163666840807
    SCF energy          (wfn)     = -459.669068347804057
    Reference energy    (file100) = -459.669068347805023

    Input parameters:
    -----------------
    Wave function   =     CCSD
    Reference wfn   =     UHF
    Brueckner       =     No
    Memory (Mbytes) =     250000.0
    Maxiter         =     50
    R_Convergence   =     1.0e-07
    E_Convergence   =     1.0e-06
    Restart         =     Yes
    DIIS            =     Yes
    AO Basis        =     NONE
    ABCD            =     NEW
    Cache Level     =     2
    Cache Type      =     LRU
    Print Level     =     1
    Num. of threads =     4
    # Amps to Print =     10
    Print MP2 Amps? =     No
    Analyze T2 Amps =     No
    Print Pair Ener =     No
    Local CC        =     No
    SCS-MP2         =     False
    SCSN-MP2        =     False
    SCS-CCSD        =     False

MP2 correlation energy -0.1252693845397108
                Solving CC Amplitude Equations
                ------------------------------
  Iter             Energy              RMS        T1Diag      D1Diag    New D1Diag    D2Diag
  ----     ---------------------    ---------   ----------  ----------  ----------   --------
     0        -0.125269384539711    0.000e+00    0.000000    0.000000    0.000000    0.000000
     1        -0.142692379933304    4.225e-02    0.006953    0.000000    0.000000    0.000000
     2        -0.147978881007534    1.485e-02    0.010746    0.000000    0.000000    0.000000
     3        -0.148365382990223    3.662e-03    0.011851    0.000000    0.000000    0.000000
     4        -0.148379968173398    9.379e-04    0.011981    0.000000    0.000000    0.000000
     5        -0.148378340472739    3.699e-04    0.012022    0.000000    0.000000    0.000000
     6        -0.148379571642921    1.052e-04    0.012021    0.000000    0.000000    0.000000
     7        -0.148380237802861    3.196e-05    0.012019    0.000000    0.000000    0.000000
     8        -0.148380147533265    1.200e-05    0.012018    0.000000    0.000000    0.000000
     9        -0.148380120836026    4.286e-06    0.012018    0.000000    0.000000    0.000000
    10        -0.148380133290507    1.532e-06    0.012017    0.000000    0.000000    0.000000
    11        -0.148380130473573    3.902e-07    0.012017    0.000000    0.000000    0.000000
    12        -0.148380124339697    1.172e-07    0.012017    0.000000    0.000000    0.000000
    13        -0.148380122469524    3.729e-08    0.012017    0.000000    0.000000    0.000000
    13        -0.148380122469524    3.729e-08    0.012017    0.000000    0.000000    0.000000

    Iterations converged.

    CCSD corr. energy   =   -0.148380122469524
    PPL corr. energy    =    0.034754977171532
    OS PPL corr. energy =    0.028911443733996
    SS PPL corr. energy =    0.005843533437536
    Largest TIA Amplitudes:
              2  19         0.0072551003
              1  10        -0.0068224276
              1   5         0.0068203313
              1   8         0.0057915586
              2  18        -0.0048036251
              1   1         0.0038340739
              1   4         0.0033414526
              1   3         0.0031747618
              0   1         0.0030473405
              3  26         0.0028774091

    Largest Tia Amplitudes:
              0   4         0.0137738124
              1   4         0.0096458301
              0   9        -0.0082146487
              0   5        -0.0074361701
              2  27         0.0069298220
              0   0         0.0067058041
              0   1        -0.0065332360
              1   0         0.0051467492
              1   9        -0.0046962623
              0  10         0.0045171192

    Largest TIJAB Amplitudes:
      3   2  15   4         0.0392736591
      2   1  19   1         0.0224594825
      3   1  26   1         0.0211899506
      3   2  16   4         0.0197689908
      2   1  19   0        -0.0194427755
      3   1  26   0        -0.0193647771
      3   2  15   9         0.0192949177
      3   1  26   5         0.0169187428
      3   2  16   9         0.0157374140
      3   2  28  21        -0.0155736306

    Largest Tijab Amplitudes:
      2   1  27   1         0.0228657193
      2   0  18  15        -0.0198991975
      2   1  27   0        -0.0176161981
      2   1  27   4         0.0153121301
      1   0  20  18        -0.0138910714
      2   1  20  15        -0.0135318316
      2   1  28   1         0.0131383764
      2   1  27   5         0.0126447418
      2   1  28   5         0.0114983625
      2   0  18  16        -0.0112430353

    Largest TIjAb Amplitudes:
      1   1   0   0        -0.0524276874
      1   1   0   1         0.0490948002
      3   0  15  18         0.0469436651
      2   0   4  18        -0.0468633552
      1   1   1   1        -0.0444463692
      3   2  15  15        -0.0442557307
      3   2   4   4         0.0441423885
      1   1   1   0         0.0406686718
      1   0  19  18        -0.0340237600
      3   2  28  29        -0.0310282505

    SCF energy       (wfn)                    = -459.669068347804057
    Reference energy (file100)                = -459.669068347805023

    Opposite-spin MP2 correlation energy      =   -0.096286963113715
    Same-spin MP2 correlation energy          =   -0.028982421425995
    MP2 correlation energy                    =   -0.125269384539711
      * MP2 total energy                      = -459.794337732344729

    Opposite-spin CCSD correlation energy     =   -0.118824632071133
    Same-spin CCSD correlation energy         =   -0.029555490590623
    CCSD correlation energy                   =   -0.148380122469524
      * CCSD total energy                     = -459.817448470274542

*** tstop() called on cqc05 at Thu Aug 20 19:54:18 2020
Module time:
	user time   =       0.23 seconds =       0.00 minutes
	system time =       0.17 seconds =       0.00 minutes
	total time  =          1 seconds =       0.02 minutes

*** Psi4 exiting successfully. Buy a developer a beer!
