                               Psi4 1.4a3.dev88

  ==> Input File <==

--------------------------------------------------------------------------
# Any line starting with the # character is a comment line
memory 250000 mb
molecule molecule{
0 1
C         -0.0000000000        0.0000000000       -1.2269371074
Cl         0.0000000000        0.0000000000        0.5495574478
H          1.0284771469        0.0000000000       -1.5697755158
H         -0.5142385735        0.8906873364       -1.5697755158
H         -0.5142385735       -0.8906873364       -1.5697755158
}

set {
  reference rhf
  basis aug-cc-pV(d+d)Z
  scf_type OUT_OF_CORE
  freeze_core true
}

energy('ccsd(t)')
--------------------------------------------------------------------------

    Molecular point group: cs

    Geometry (in Angstrom), charge = 0, multiplicity = 1:

       Center              X                  Y                   Z               Mass
    ------------   -----------------  -----------------  -----------------  -----------------
         C           -0.000000000001     1.221895753116     0.000000000000    12.000000000000
         CL          -0.000000000001    -0.554598802084     0.000000000000    34.968852682000
         H           -0.514238573427     1.564734161516     0.890687336442     1.007825032230
         H           -0.514238573427     1.564734161516    -0.890687336442     1.007825032230
         H            1.028477146900     1.564734161516     0.000000000000     1.007825032230

  Charge       = 0
  Multiplicity = 1
  Basis Set: AUG-CC-PV(D+D)Z
    Blend: AUG-CC-PV(D+D)Z

    Orbital Energies [Eh]
    ---------------------

    Doubly Occupied:

       1Ap  -104.823945     2Ap   -11.296692     3Ap   -10.550161
       4Ap    -8.017989     1App   -8.014605     5Ap    -8.014605
       6Ap    -1.131738     7Ap    -0.916501     8Ap    -0.618891
       2App   -0.618891     9Ap    -0.548800    10Ap    -0.435617
       3App   -0.435617

  @RHF Final Energy:  -499.12404838805139

   => Energetics <=

    Nuclear Repulsion Energy =             51.5172754731944806
    One-Electron Energy =                -790.4345448253383211
    Two-Electron Energy =                 239.7932209640924839
    Total Energy =                       -499.1240483880513921

  Dipole Moment: [D]
     X:    -0.0000      Y:     2.1351      Z:     0.0000     Total:     2.1351

      * MP2 total energy                      = -499.430237115621594
      * CCSD total energy                     = -499.461414867593078
      * CCSD(T) total energy                  = -499.471329136723512
*** Psi4 exiting successfully. Buy a developer a beer!
