                               Psi4 1.4a3.dev88

  ==> Input File <==

--------------------------------------------------------------------------
# Any line starting with the # character is a comment line
memory 250000 mb
molecule molecule{
0 1
C         -0.0000000000        0.0000000000       -1.2269371074
Cl         0.0000000000        0.0000000000        0.5495574478
H          1.0284771469        0.0000000000       -1.5697755158
H         -0.5142385735        0.8906873364       -1.5697755158
H         -0.5142385735       -0.8906873364       -1.5697755158
}

set {
  reference rhf
  basis aug-cc-pV(t+d)Z
  scf_type OUT_OF_CORE
  freeze_core true
}

energy('ccsd(t)')
--------------------------------------------------------------------------

    Molecular point group: cs

    Geometry (in Angstrom), charge = 0, multiplicity = 1:

       Center              X                  Y                   Z               Mass
    ------------   -----------------  -----------------  -----------------  -----------------
         C           -0.000000000001     1.221895753116     0.000000000000    12.000000000000
         CL          -0.000000000001    -0.554598802084     0.000000000000    34.968852682000
         H           -0.514238573427     1.564734161516     0.890687336442     1.007825032230
         H           -0.514238573427     1.564734161516    -0.890687336442     1.007825032230
         H            1.028477146900     1.564734161516     0.000000000000     1.007825032230

  Charge       = 0
  Multiplicity = 1
  Basis Set: AUG-CC-PV(T+D)Z
    Blend: AUG-CC-PV(T+D)Z

    Orbital Energies [Eh]
    ---------------------

    Doubly Occupied:

       1Ap  -104.826013     2Ap   -11.289226     3Ap   -10.550329
       4Ap    -8.017305     1App   -8.015379     5Ap    -8.015379
       6Ap    -1.129459     7Ap    -0.914978     8Ap    -0.618821
       2App   -0.618821     9Ap    -0.547198    10Ap    -0.435466
       3App   -0.435466

  @RHF Final Energy:  -499.14982667728617

   => Energetics <=

    Nuclear Repulsion Energy =             51.5172754731944806
    One-Electron Energy =                -790.5065313742261424
    Two-Electron Energy =                 239.8394292237455261
    Total Energy =                       -499.1498266772861712

  Dipole Moment: [D]
     X:    -0.0000      Y:     2.1039      Z:     0.0000     Total:     2.1039

      * MP2 total energy                      = -499.530800043328156
      * CCSD total energy                     = -499.561246053215939
      * CCSD(T) total energy                  = -499.577817106787563
*** Psi4 exiting successfully. Buy a developer a beer!
