                               Psi4 1.2a1.dev939

  ==> Input File <==

--------------------------------------------------------------------------
# Any line starting with the # character is a comment line

memory 150000 mb

molecule molecule {
0 1
O          0.0000000000        0.0000000000       -0.0661495700
H          0.0000000000       -0.7581329363        0.5250081505
H          0.0000000000        0.7581329363        0.5250081505
}

set {
  reference rhf

  basis aug-cc-pv(6+d)z
  scf_type OUT_OF_CORE
  freeze_core true
}

energy('ccsd')
--------------------------------------------------------------------------

    Molecular point group: c2v

    Geometry (in Angstrom), charge = 0, multiplicity = 1:

       Center              X                  Y                   Z               Mass
    ------------   -----------------  -----------------  -----------------  -----------------
           O         -0.000000000000     0.000000000000    -0.066159341374    15.994914619560
           H          0.000000000000    -0.758132936300     0.524998379126     1.007825032070
           H         -0.000000000000     0.758132936300     0.524998379126     1.007825032070

  Charge       = 0
  Multiplicity = 1
  Basis Set: AUG-CC-PV(6+D)Z
    Blend: AUG-CC-PV(6+D)Z

    Orbital Energies (a.u.)
    -----------------------

    Doubly Occupied:

       1A1   -20.564873     2A1    -1.350789     1B2    -0.714738
       3A1    -0.584982     1B1    -0.510305

  @RHF Final Energy:   -76.06710682465015

   => Energetics <=

    Nuclear Repulsion Energy =              9.1560485794105055
    One-Electron Energy =                -122.9949340065307410
    Two-Electron Energy =                  37.7717786024700715
    PCM Polarization Energy =               0.0000000000000000
    Total Energy =                        -76.0671068246501534
      * MP2 total energy                      =  -76.363402884364447
      * CCSD total energy                     =  -76.362749785848450
*** Psi4 exiting successfully. Buy a developer a beer!
