                               Psi4 1.2a1.dev939

  ==> Input File <==

--------------------------------------------------------------------------
# Any line starting with the # character is a comment line

memory 32000 mb

molecule molecule {
0 1
O          0.0000000000        0.0000000000       -0.0661495700
H          0.0000000000       -0.7581329363        0.5250081505
H          0.0000000000        0.7581329363        0.5250081505
}

set {
  reference rhf
  basis aug-cc-pv(Q+d)z
  scf_type OUT_OF_CORE
  freeze_core true
}

energy('ccsd')
--------------------------------------------------------------------------

    Molecular point group: c2v

    Geometry (in Angstrom), charge = 0, multiplicity = 1:

       Center              X                  Y                   Z               Mass
    ------------   -----------------  -----------------  -----------------  -----------------
           O         -0.000000000000     0.000000000000    -0.066159341374    15.994914619560
           H          0.000000000000    -0.758132936300     0.524998379126     1.007825032070
           H         -0.000000000000     0.758132936300     0.524998379126     1.007825032070

  Charge       = 0
  Multiplicity = 1
  Basis Set: AUG-CC-PV(Q+D)Z
    Blend: AUG-CC-PV(Q+D)Z

    Orbital Energies (a.u.)
    -----------------------

    Doubly Occupied:

       1A1   -20.565649     2A1    -1.351038     1B2    -0.714766
       3A1    -0.584995     1B1    -0.510271

  @RHF Final Energy:   -76.06564879750636

   => Energetics <=

    Nuclear Repulsion Energy =              9.1560485794105055
    One-Electron Energy =                -122.9899587556139267
    Two-Electron Energy =                  37.7682613786970620
    Total Energy =                        -76.0656487975063555
      * MP2 total energy                      =  -76.351906824433513
      * CCSD total energy                     =  -76.354161975323748
*** Psi4 exiting successfully. Buy a developer a beer!
