                               Psi4 1.4a3.dev88

  ==> Input File <==

--------------------------------------------------------------------------
# Any line starting with the # character is a comment line
memory 250000 mb
molecule molecule{
0 1
F          0.0000000000        0.0000000000       -0.7006833392
F          0.0000000000        0.0000000000        0.7006833392
}

set {
  reference rhf
  basis aug-cc-pV(d+d)Z
  scf_type OUT_OF_CORE
  freeze_core true
}

energy('ccsd(t)')
--------------------------------------------------------------------------

    Molecular point group: d2h

    Geometry (in Angstrom), charge = 0, multiplicity = 1:

       Center              X                  Y                   Z               Mass
    ------------   -----------------  -----------------  -----------------  -----------------
         F            0.000000000000     0.000000000000    -0.700683339200    18.998403162730
         F            0.000000000000     0.000000000000     0.700683339200    18.998403162730

  Charge       = 0
  Multiplicity = 1
  Basis Set: AUG-CC-PV(D+D)Z
    Blend: AUG-CC-PV(D+D)Z

    Orbital Energies [Eh]
    ---------------------

    Doubly Occupied:

       1Ag   -26.445696     1B1u  -26.445455     2Ag    -1.780482
       2B1u   -1.504929     1B2u   -0.816236     1B3u   -0.816236
       3Ag    -0.761346     1B3g   -0.667466     1B2g   -0.667466

  @RHF Final Energy:  -198.69990990204585

   => Energetics <=

    Nuclear Repulsion Energy =             30.5868226531609260
    One-Electron Energy =                -338.7628406755693504
    Two-Electron Energy =                 109.4761081203625679
    Total Energy =                       -198.6999099020458459

  Dipole Moment: [D]
     X:     0.0000      Y:     0.0000      Z:    -0.0000     Total:     0.0000

      * MP2 total energy                      = -199.126539936555048
      * CCSD total energy                     = -199.133951226970140
      * CCSD(T) total energy                  = -199.146881737332308
*** Psi4 exiting successfully. Buy a developer a beer!
