                               Psi4 1.4a3.dev88

  ==> Input File <==

--------------------------------------------------------------------------
# Any line starting with the # character is a comment line
memory 250000 mb
molecule molecule{
0 1
F          0.0000000000        0.0000000000       -0.7006833392
F          0.0000000000        0.0000000000        0.7006833392
}

set {
  reference rhf
  basis aug-cc-pV(6+d)Z
  scf_type OUT_OF_CORE
  freeze_core true
}

energy('ccsd(t)')
--------------------------------------------------------------------------

    Molecular point group: d2h

    Geometry (in Angstrom), charge = 0, multiplicity = 1:

       Center              X                  Y                   Z               Mass
    ------------   -----------------  -----------------  -----------------  -----------------
         F            0.000000000000     0.000000000000    -0.700683339200    18.998403162730
         F            0.000000000000     0.000000000000     0.700683339200    18.998403162730

  Charge       = 0
  Multiplicity = 1
  Basis Set: AUG-CC-PV(6+D)Z
    Blend: AUG-CC-PV(6+D)Z

    Orbital Energies [Eh]
    ---------------------

    Doubly Occupied:

       1Ag   -26.427061     1B1u  -26.426808     2Ag    -1.769938
       2B1u   -1.494614     1B3u   -0.813635     1B2u   -0.813635
       3Ag    -0.755836     1B2g   -0.664860     1B3g   -0.664860

  @RHF Final Energy:  -198.77475179439665

   => Energetics <=

    Nuclear Repulsion Energy =             30.5868226531609260
    One-Electron Energy =                -339.0606545756899664
    Two-Electron Energy =                 109.6990801281323655
    Total Energy =                       -198.7747517943966500

  Dipole Moment: [D]
     X:     0.0000      Y:     0.0000      Z:    -0.0000     Total:     0.0000

      * MP2 total energy                      = -199.373901639887691
      * CCSD total energy                     = -199.367695292416897
      * CCSD(T) total energy                  = -199.390017858239077
*** Psi4 exiting successfully. Buy a developer a beer!
