                               Psi4 1.4a3.dev88

  ==> Input File <==

--------------------------------------------------------------------------
# Any line starting with the # character is a comment line
memory 250000 mb
molecule molecule{
0 1
F          0.0000000000        0.0000000000       -0.7006833392
F          0.0000000000        0.0000000000        0.7006833392
}

set {
  reference rhf
  basis aug-cc-pV(5+d)Z
  scf_type OUT_OF_CORE
  freeze_core true
  DOCC [     3,    0,    1,    1,    0,    2,    1,    1 ]

}

energy('ccsd(t)')
--------------------------------------------------------------------------

    Molecular point group: d2h

    Geometry (in Angstrom), charge = 0, multiplicity = 1:

       Center              X                  Y                   Z               Mass
    ------------   -----------------  -----------------  -----------------  -----------------
         F            0.000000000000     0.000000000000    -0.700683339200    18.998403162730
         F            0.000000000000     0.000000000000     0.700683339200    18.998403162730

  Charge       = 0
  Multiplicity = 1
  Basis Set: AUG-CC-PV(5+D)Z
    Blend: AUG-CC-PV(5+D)Z

    Orbital Energies [Eh]
    ---------------------

    Doubly Occupied:

       1Ag   -26.427146     1B1u  -26.426893     2Ag    -1.769981
       2B1u   -1.494655     1B3u   -0.813643     1B2u   -0.813643
       3Ag    -0.755862     1B2g   -0.664867     1B3g   -0.664867

  @RHF Final Energy:  -198.77437148631930

   => Energetics <=

    Nuclear Repulsion Energy =             30.5868226531609260
    One-Electron Energy =                -339.0592720262946500
    Two-Electron Energy =                 109.6980778868144171
    Total Energy =                       -198.7743714863192963

  Dipole Moment: [D]
     X:     0.0000      Y:     0.0000      Z:    -0.0000     Total:     0.0000

      * MP2 total energy                      = -199.365858595018210
      * CCSD total energy                     = -199.361761286640927
      * CCSD(T) total energy                  = -199.383821555694084
*** Psi4 exiting successfully. Buy a developer a beer!
