                               Psi4 1.2a1.dev939

  ==> Input File <==

--------------------------------------------------------------------------
# Any line starting with the # character is a comment line
memory 250000 mb
molecule molecule{
0 1
O          0.0000000000        0.0000000000       -0.6054235579
C          0.0000000000        0.0000000000        0.6074682248
H          0.0000000000        0.9360130303        1.1856424111
H          0.0000000000       -0.9360130303        1.1856424111
}

set {
  reference rhf
  basis aug-cc-pv(6+d)z
  scf_type OUT_OF_CORE
  freeze_core true
}

energy('ccsd')
--------------------------------------------------------------------------

    Molecular point group: c2v

    Geometry (in Angstrom), charge = 0, multiplicity = 1:

       Center              X                  Y                   Z               Mass
    ------------   -----------------  -----------------  -----------------  -----------------
           O         -0.000000000000     0.000000000000    -0.605282300388    15.994914619560
           C         -0.000000000000     0.000000000000     0.607609482312    12.000000000000
           H         -0.000000000000     0.936013030300     1.185783668612     1.007825032070
           H          0.000000000000    -0.936013030300     1.185783668612     1.007825032070

  Charge       = 0
  Multiplicity = 1
  Basis Set: AUG-CC-PV(6+D)Z
    Blend: AUG-CC-PV(6+D)Z

    Orbital Energies (a.u.)
    -----------------------

    Doubly Occupied:

       1A1   -20.575736     2A1   -11.342079     3A1    -1.401107
       4A1    -0.872685     1B2    -0.694527     5A1    -0.650662
       1B1    -0.534324     2B2    -0.445090

  @RHF Final Energy:  -113.92244125593857

   => Energetics <=

    Nuclear Repulsion Energy =             31.1862903811962440
    One-Electron Energy =                -217.1850438286589338
    Two-Electron Energy =                  72.0763121915241243
    Total Energy =                       -113.9224412559385655
      * MP2 total energy                      = -114.364946317493889
      * CCSD total energy                     = -114.365359689492735
*** Psi4 exiting successfully. Buy a developer a beer!
