                               Psi4 1.2a1.dev939

  ==> Input File <==

--------------------------------------------------------------------------
# Any line starting with the # character is a comment line

memory 32000 mb

molecule molecule {
0 1
O          0.0000000000        0.0000000000       -0.6054235579
C          0.0000000000        0.0000000000        0.6074682248
H          0.0000000000        0.9360130303        1.1856424111
H          0.0000000000       -0.9360130303        1.1856424111
}

set {
  reference rhf

  basis aug-cc-pv(5+d)z
  scf_type OUT_OF_CORE
  freeze_core true
}

energy('ccsd')
--------------------------------------------------------------------------

    Molecular point group: c2v

    Geometry (in Angstrom), charge = 0, multiplicity = 1:

       Center              X                  Y                   Z               Mass
    ------------   -----------------  -----------------  -----------------  -----------------
           O         -0.000000000000     0.000000000000    -0.605282300388    15.994914619560
           C         -0.000000000000     0.000000000000     0.607609482312    12.000000000000
           H         -0.000000000000     0.936013030300     1.185783668612     1.007825032070
           H          0.000000000000    -0.936013030300     1.185783668612     1.007825032070

  Charge       = 0
  Multiplicity = 1
  Basis Set: AUG-CC-PV(5+D)Z
    Blend: AUG-CC-PV(5+D)Z

    Orbital Energies (a.u.)
    -----------------------

    Doubly Occupied:

       1A1   -20.575786     2A1   -11.342101     3A1    -1.401127
       4A1    -0.872688     1B2    -0.694525     5A1    -0.650661
       1B1    -0.534325     2B2    -0.445083

  @RHF Final Energy:  -113.92224060908687

   => Energetics <=

    Nuclear Repulsion Energy =             31.1862903811962440
    One-Electron Energy =                -217.1844664628198984
    Two-Electron Energy =                  72.0759354725367842
    Total Energy =                       -113.9222406090868702
      * MP2 total energy                      = -114.360286159629382
      * CCSD total energy                     = -114.362299382368093
*** Psi4 exiting successfully. Buy a developer a beer!
