                               Psi4 1.4a3.dev88

  ==> Input File <==

--------------------------------------------------------------------------
# Any line starting with the # character is a comment line
memory 250000 mb
molecule molecule{
0 1
C          0.0000000000        0.0000000000        0.5128013035
O          0.0000000000        0.0000000000        1.6988856423
Cl         1.4380172470        0.0000000000       -0.4631957958
Cl        -1.4380172470        0.0000000000       -0.4631957958
}

set {
  reference rhf
  basis aug-cc-pV(d+d)Z
  scf_type OUT_OF_CORE
  freeze_core true
}

energy('ccsd(t)')
--------------------------------------------------------------------------

    Molecular point group: c2v

    Geometry (in Angstrom), charge = 0, multiplicity = 1:

       Center              X                  Y                   Z               Mass
    ------------   -----------------  -----------------  -----------------  -----------------
         C            0.000000000000     0.000000000000     0.503281540354    12.000000000000
         O            0.000000000000     0.000000000000     1.689365879154    15.994914619570
         CL           1.438017247000     0.000000000000    -0.472715558946    34.968852682000
         CL          -1.438017247000    -0.000000000000    -0.472715558946    34.968852682000

  Charge       = 0
  Multiplicity = 1
  Basis Set: AUG-CC-PV(D+D)Z
    Blend: AUG-CC-PV(D+D)Z

    Orbital Energies [Eh]
    ---------------------

    Doubly Occupied:

       1B1  -104.888317     1A1  -104.888316     2A1   -20.634599
       3A1   -11.483883     2B1   -10.615152     4A1   -10.615116
       3B1    -8.082938     5A1    -8.082935     1A2    -8.079168
       1B2    -8.079166     4B1    -8.078912     6A1    -8.078911
       7A1    -1.486571     8A1    -1.208987     5B1    -1.144384
       9A1    -0.816192     6B1    -0.709725    10A1    -0.703900
       2B2    -0.648157    11A1    -0.533067     2A2    -0.502367
       3B2    -0.499133     7B1    -0.497561     8B1    -0.476805

  @RHF Final Energy: -1031.74988976296618

   => Energetics <=

    Nuclear Repulsion Energy =            192.1367373983611913
    One-Electron Energy =               -1806.1047307069466115
    Two-Electron Energy =                 582.2181035456192149
    Total Energy =                      -1031.7498897629661769

  Dipole Moment: [D]
     X:     0.0000      Y:    -0.0000      Z:    -1.6212     Total:     1.6212

      * MP2 total energy                      = -1032.379278138131212
      * CCSD total energy                     = -1032.401515652825992
      * CCSD(T) total energy                  = -1032.428035597305552
*** Psi4 exiting successfully. Buy a developer a beer!
