                               Psi4 1.4a3.dev88

  ==> Input File <==

--------------------------------------------------------------------------
# Any line starting with the # character is a comment line
memory 250000 mb
molecule molecule{
0 1
C          0.0000000000        0.0000000000        0.5128013035
O          0.0000000000        0.0000000000        1.6988856423
Cl         1.4380172470        0.0000000000       -0.4631957958
Cl        -1.4380172470        0.0000000000       -0.4631957958
}

set {
  reference rhf
  basis aug-cc-pV(Q+d)Z
  scf_type OUT_OF_CORE
  freeze_core true
}

energy('ccsd(t)')
--------------------------------------------------------------------------

    Molecular point group: c2v

    Geometry (in Angstrom), charge = 0, multiplicity = 1:

       Center              X                  Y                   Z               Mass
    ------------   -----------------  -----------------  -----------------  -----------------
         C            0.000000000000     0.000000000000     0.503281540354    12.000000000000
         O            0.000000000000     0.000000000000     1.689365879154    15.994914619570
         CL           1.438017247000     0.000000000000    -0.472715558946    34.968852682000
         CL          -1.438017247000    -0.000000000000    -0.472715558946    34.968852682000

  Charge       = 0
  Multiplicity = 1
  Basis Set: AUG-CC-PV(Q+D)Z
    Blend: AUG-CC-PV(Q+D)Z

    Orbital Energies [Eh]
    ---------------------

    Doubly Occupied:

       1B1  -104.888367     1A1  -104.888367     2A1   -20.619093
       3A1   -11.473940     2B1   -10.614024     4A1   -10.614009
       3B1    -8.081034     5A1    -8.081030     1A2    -8.079051
       1B2    -8.079049     4B1    -8.078926     6A1    -8.078925
       7A1    -1.477707     8A1    -1.204970     5B1    -1.140941
       9A1    -0.812229     6B1    -0.706241    10A1    -0.700204
       2B2    -0.646131    11A1    -0.532066     2A2    -0.501842
       3B2    -0.497907     7B1    -0.495522     8B1    -0.476588

  @RHF Final Energy: -1031.81825426996556

   => Energetics <=

    Nuclear Repulsion Energy =            192.1367373983611913
    One-Electron Energy =               -1806.3736530007108740
    Two-Electron Energy =                 582.4186613323840902
    Total Energy =                      -1031.8182542699655642

  Dipole Moment: [D]
     X:     0.0000      Y:    -0.0000      Z:    -1.6327     Total:     1.6327

      * MP2 total energy                      = -1032.657462768683445
      * CCSD total energy                     = -1032.672631787721912
      * CCSD(T) total energy                  = -1032.717767779638280
*** Psi4 exiting successfully. Buy a developer a beer!
