                               Psi4 1.4a3.dev88

  ==> Input File <==

--------------------------------------------------------------------------
# Any line starting with the # character is a comment line
memory 250000 mb
molecule molecule{
0 1
C          0.0000000000        0.0000000000        0.5128013035
O          0.0000000000        0.0000000000        1.6988856423
Cl         1.4380172470        0.0000000000       -0.4631957958
Cl        -1.4380172470        0.0000000000       -0.4631957958
}

set {
  reference rhf
  basis aug-cc-pV(5+d)Z
  scf_type OUT_OF_CORE
  freeze_core true
}

energy('ccsd(t)')
--------------------------------------------------------------------------

    Molecular point group: c2v

    Geometry (in Angstrom), charge = 0, multiplicity = 1:

       Center              X                  Y                   Z               Mass
    ------------   -----------------  -----------------  -----------------  -----------------
         C            0.000000000000     0.000000000000     0.503281540354    12.000000000000
         O            0.000000000000     0.000000000000     1.689365879154    15.994914619570
         CL           1.438017247000     0.000000000000    -0.472715558946    34.968852682000
         CL          -1.438017247000    -0.000000000000    -0.472715558946    34.968852682000

  Charge       = 0
  Multiplicity = 1
  Basis Set: AUG-CC-PV(5+D)Z
    Blend: AUG-CC-PV(5+D)Z

    Orbital Energies [Eh]
    ---------------------

    Doubly Occupied:

       1B1  -104.888804     1A1  -104.888804     2A1   -20.618312
       3A1   -11.473548     2B1   -10.614066     4A1   -10.614052
       3B1    -8.080943     5A1    -8.080939     1A2    -8.079157
       1B2    -8.079155     4B1    -8.079056     6A1    -8.079055
       7A1    -1.477414     8A1    -1.204854     5B1    -1.140864
       9A1    -0.812152     6B1    -0.706209    10A1    -0.700160
       2B2    -0.646094    11A1    -0.532044     2A2    -0.501828
       3B2    -0.497888     7B1    -0.495499     8B1    -0.476579

  @RHF Final Energy: -1031.82094723804448

   => Energetics <=

    Nuclear Repulsion Energy =            192.1367373983611913
    One-Electron Energy =               -1806.3804127868534124
    Two-Electron Energy =                 582.4227281504478242
    Total Energy =                      -1031.8209472380444822

  Dipole Moment: [D]
     X:     0.0000      Y:    -0.0000      Z:    -1.6337     Total:     1.6337

      * MP2 total energy                      = -1032.684672786440387
      * CCSD total energy                     = -1032.692656605002639
      * CCSD(T) total energy                  = -1032.739237710719181
*** Psi4 exiting successfully. Buy a developer a beer!
