                               Psi4 1.4a3.dev88

  ==> Input File <==

--------------------------------------------------------------------------
# Any line starting with the # character is a comment line
memory 250000 mb
molecule molecule{
-1 3
Si         0.0000000000        0.0000000000        0.0535071526
H          0.0000000000        0.0000000000       -1.4909370929
}

set {
  reference uhf
  basis aug-cc-pV(d+d)Z
  scf_type OUT_OF_CORE
  freeze_core true
}

energy('ccsd(t)')
--------------------------------------------------------------------------

    Molecular point group: c2v

    Geometry (in Angstrom), charge = -1, multiplicity = 3:

       Center              X                  Y                   Z               Mass
    ------------   -----------------  -----------------  -----------------  -----------------
         SI           0.000000000000     0.000000000000     0.053701670270    27.976926534650
         H            0.000000000000     0.000000000000    -1.490742575230     1.007825032230

  Charge       = -1
  Multiplicity = 3
  Basis Set: AUG-CC-PV(D+D)Z
    Blend: AUG-CC-PV(D+D)Z

    Orbital Energies [Eh]
    ---------------------

    Alpha Occupied:

       1A1   -68.551650     2A1    -5.895936     1B2    -4.004136
       1B1    -4.004136     3A1    -3.995165     4A1    -0.435988
       5A1    -0.161839     2B2    -0.055956     2B1    -0.055956

    Alpha Virtual:

       6A1     0.175961     7A1     0.198291     3B2     0.217052
       3B1     0.217052     8A1     0.274507     9A1     0.381220
       1A2     0.386016    10A1     0.386016     4B1     0.397340
       4B2     0.397340    11A1     0.544848    12A1     0.552264
       5B1     0.650499     5B2     0.650499     6B2     0.752466
       6B1     0.752466    13A1     0.815487    14A1     0.886053
       2A2     0.887281    15A1     0.887281     7B2     0.909894
       7B1     0.909894    16A1     1.141962    17A1     1.411327
       8B1     2.142266     8B2     2.142266    18A1     2.376463
       3A2     3.584730    19A1     3.584730     9B1     3.607606
       9B2     3.607606    20A1     3.668910

    Beta Occupied:

       1A1   -68.545096     2A1    -5.887648     3A1    -3.992311
       1B1    -3.984616     1B2    -3.984616     4A1    -0.347039
       5A1    -0.122687

    Beta Virtual:

       6A1     0.179573     2B2     0.190347     2B1     0.190347
       7A1     0.202980     8A1     0.294850     3B1     0.320642
       3B2     0.320642     9A1     0.402100     4B1     0.430355
       4B2     0.430355     1A2     0.450020    10A1     0.450020
      11A1     0.563356    12A1     0.565851     5B2     0.664962
       5B1     0.664962     6B1     0.816705     6B2     0.816705
      13A1     0.825626    14A1     0.911901     7B1     0.945199
       7B2     0.945199     2A2     0.962352    15A1     0.962352
      16A1     1.155692    17A1     1.418017     8B1     2.145419
       8B2     2.145419    18A1     2.380943     3A2     3.595259
      19A1     3.595259     9B1     3.613116     9B2     3.613116
      20A1     3.672433

    Final Occupation by Irrep:
             A1    A2    B1    B2
    DOCC [     5,    0,    1,    1 ]
    SOCC [     0,    0,    1,    1 ]

  @UHF Final Energy:  -289.46028158291642

   => Energetics <=

    Nuclear Repulsion Energy =              4.7968587865608381
    One-Electron Energy =                -414.4895057383631070
    Two-Electron Energy =                 120.2323653688858371
    Total Energy =                       -289.4602815829164228

  UHF NO Occupations:
  HONO-2 :    5 A1 1.9835312
  HONO-1 :    2 B1 1.0000000
  HONO-0 :    2 B2 1.0000000
  LUNO+0 :    6 A1 0.0164688
  LUNO+1 :    7 A1 0.0006046
  LUNO+2 :    3 B2 0.0000003
  LUNO+3 :    3 B1 0.0000003

Computation Completed

Properties will be evaluated at   0.000000,   0.000000,   0.000000 [a0]

Properties computed using the SCF density matrix

  Nuclear Dipole Moment: [e a0]
     X:     0.0000      Y:     0.0000      Z:    -1.3964

  Electronic Dipole Moment: [e a0]
     X:     0.0000      Y:     0.0000      Z:     1.3410

  Dipole Moment: [e a0]
     X:     0.0000      Y:     0.0000      Z:    -0.0553     Total:     0.0553

  Dipole Moment: [D]
     X:     0.0000      Y:     0.0000      Z:    -0.1406     Total:     0.1406

*** tstop() called on n412-039.vsc4.prov at Tue Jan 26 18:37:18 2021
Module time:
	user time   =      17.94 seconds =       0.30 minutes
	system time =       1.60 seconds =       0.03 minutes
	total time  =          2 seconds =       0.03 minutes
Total time:
	user time   =      17.94 seconds =       0.30 minutes
	system time =       1.60 seconds =       0.03 minutes
	total time  =          2 seconds =       0.03 minutes

*** tstart() called on n412-039.vsc4.prov
*** at Tue Jan 26 18:37:18 2021

	Wfn Parameters:
	--------------------
	Wavefunction         = CCSD_T
	Number of irreps     = 4
	Number of MOs        = 41
	Number of active MOs = 36
	AO-Basis             = NONE
	Semicanonical        = false
	Reference            = UHF
	Print Level          = 1

	IRREP	# MOs	# FZDC	# DOCC	# SOCC	# VIRT	# FZVR
	-----	-----	------	------	------	------	------
	 A1	   20	    3	    2	    0	    15	    0
	 A2	   3	    0	    0	    0	    3	    0
	 B1	   9	    1	    0	    1	    7	    0
	 B2	   9	    1	    0	    1	    7	    0
	Transforming integrals...
	IWL integrals will be deleted.
	(OO|OO)...
	Presorting SO-basis two-electron integrals.
	Sorting File: SO Ints (nn|nn) nbuckets = 1
	Constructing frozen core operators
	Starting AA/AB first half-transformation.
	Sorting AA/AB half-transformed integrals.
	Starting BB first half-transformation.
	Sorting BB half-transformed integrals.
	First half integral transformation complete.
	Starting AA second half-transformation.
	Starting AB second half-transformation.
	Starting BB second half-transformation.
	Two-electron integral transformation complete.
	(OO|OV)...
	Starting AA second half-transformation.
	Starting AB second half-transformation.
	Starting BB second half-transformation.
	Two-electron integral transformation complete.
	(OO|VV)...
	Starting AA second half-transformation.
	Starting AB second half-transformation.
	Starting BB second half-transformation.
	Two-electron integral transformation complete.
	(OV|OO)...
	Starting AA/AB first half-transformation.
	Sorting AA/AB half-transformed integrals.
	Starting BB first half-transformation.
	Sorting BB half-transformed integrals.
	First half integral transformation complete.
	Starting AA second half-transformation.
	Starting AB second half-transformation.
	Starting BB second half-transformation.
	Two-electron integral transformation complete.
	(OV|OV)...
	Starting AA second half-transformation.
	Starting AB second half-transformation.
	Starting BB second half-transformation.
	Two-electron integral transformation complete.
	(OV|VV)...
	Starting AA second half-transformation.
	Starting AB second half-transformation.
	Starting BB second half-transformation.
	Two-electron integral transformation complete.
	(VV|OO)...
	Starting AA/AB first half-transformation.
	Sorting AA/AB half-transformed integrals.
	Starting BB first half-transformation.
	Sorting BB half-transformed integrals.
	First half integral transformation complete.
	Starting AA second half-transformation.
	Starting AB second half-transformation.
	Starting BB second half-transformation.
	Two-electron integral transformation complete.
	(VV|OV)...
	Starting AA second half-transformation.
	Starting AB second half-transformation.
	Starting BB second half-transformation.
	Two-electron integral transformation complete.
	(VV|VV)...
	Starting AA second half-transformation.
	Starting AB second half-transformation.
	Starting BB second half-transformation.
	Two-electron integral transformation complete.
	Frozen core energy     =   -288.59768641771581

	Size of irrep 0 of <AB|CD> integrals:      0.022 (MW) /      0.180 (MB)
	Size of irrep 1 of <AB|CD> integrals:      0.009 (MW) /      0.071 (MB)
	Size of irrep 2 of <AB|CD> integrals:      0.016 (MW) /      0.127 (MB)
	Size of irrep 3 of <AB|CD> integrals:      0.016 (MW) /      0.127 (MB)
	Total:                                     0.063 (MW) /      0.505 (MB)

	Size of irrep 0 of <ab|cd> integrals:      0.027 (MW) /      0.215 (MB)
	Size of irrep 1 of <ab|cd> integrals:      0.012 (MW) /      0.095 (MB)
	Size of irrep 2 of <ab|cd> integrals:      0.021 (MW) /      0.166 (MB)
	Size of irrep 3 of <ab|cd> integrals:      0.021 (MW) /      0.166 (MB)
	Total:                                     0.080 (MW) /      0.642 (MB)

	Size of irrep 0 of <Ab|Cd> integrals:      0.120 (MW) /      0.958 (MB)
	Size of irrep 1 of <Ab|Cd> integrals:      0.041 (MW) /      0.326 (MB)
	Size of irrep 2 of <Ab|Cd> integrals:      0.073 (MW) /      0.583 (MB)
	Size of irrep 3 of <Ab|Cd> integrals:      0.073 (MW) /      0.583 (MB)
	Total:                                     0.306 (MW) /      2.451 (MB)

	Size of irrep 0 of <IA|BC> integrals:      0.015 (MW) /      0.117 (MB)
	Size of irrep 1 of <IA|BC> integrals:      0.004 (MW) /      0.030 (MB)
	Size of irrep 2 of <IA|BC> integrals:      0.008 (MW) /      0.065 (MB)
	Size of irrep 3 of <IA|BC> integrals:      0.008 (MW) /      0.065 (MB)
	Total:                                     0.034 (MW) /      0.276 (MB)

	Size of irrep 0 of <ia|bc> integrals:      0.011 (MW) /      0.087 (MB)
	Size of irrep 1 of <ia|bc> integrals:      0.001 (MW) /      0.010 (MB)
	Size of irrep 2 of <ia|bc> integrals:      0.005 (MW) /      0.037 (MB)
	Size of irrep 3 of <ia|bc> integrals:      0.005 (MW) /      0.037 (MB)
	Total:                                     0.021 (MW) /      0.171 (MB)

	Size of irrep 0 of <Ia|Bc> integrals:      0.016 (MW) /      0.127 (MB)
	Size of irrep 1 of <Ia|Bc> integrals:      0.004 (MW) /      0.036 (MB)
	Size of irrep 2 of <Ia|Bc> integrals:      0.009 (MW) /      0.073 (MB)
	Size of irrep 3 of <Ia|Bc> integrals:      0.009 (MW) /      0.073 (MB)
	Total:                                     0.039 (MW) /      0.310 (MB)

	Size of irrep 0 of <iA|bC> integrals:      0.010 (MW) /      0.083 (MB)
	Size of irrep 1 of <iA|bC> integrals:      0.001 (MW) /      0.010 (MB)
	Size of irrep 2 of <iA|bC> integrals:      0.004 (MW) /      0.030 (MB)
	Size of irrep 3 of <iA|bC> integrals:      0.004 (MW) /      0.030 (MB)
	Total:                                     0.019 (MW) /      0.153 (MB)

	Size of irrep 0 of tIjAb amplitudes:       0.001 (MW) /      0.011 (MB)
	Size of irrep 1 of tIjAb amplitudes:       0.000 (MW) /      0.000 (MB)
	Size of irrep 2 of tIjAb amplitudes:       0.001 (MW) /      0.004 (MB)
	Size of irrep 3 of tIjAb amplitudes:       0.001 (MW) /      0.004 (MB)
	Total:                                     0.002 (MW) /      0.020 (MB)

	Nuclear Rep. energy          =      4.79685878656084
	SCF energy                   =   -289.46028158291642
	One-electron energy          =    -10.13944267048198
	Two-electron (AA) energy     =      1.55400883357248
	Two-electron (BB) energy     =      0.25191561249412
	Two-electron (AB) energy     =      2.67406427265436
	Two-electron energy          =      4.47998871872096
	Reference energy             =   -289.46028158291597

*** tstop() called on n412-039.vsc4.prov at Tue Jan 26 18:37:19 2021
Module time:
	user time   =       0.09 seconds =       0.00 minutes
	system time =       0.15 seconds =       0.00 minutes
	total time  =          1 seconds =       0.02 minutes
Total time:
	user time   =      18.04 seconds =       0.30 minutes
	system time =       1.75 seconds =       0.03 minutes
	total time  =          3 seconds =       0.05 minutes
            **************************
            *                        *
            *        CCENERGY        *
            *                        *
            **************************

    Nuclear Rep. energy (wfn)     =    4.796858786560838
    SCF energy          (wfn)     = -289.460281582916423
    Reference energy    (file100) = -289.460281582915968

    Input parameters:
    -----------------
    Wave function   =     CCSD_T
    Reference wfn   =     UHF
    Brueckner       =     No
    Memory (Mbytes) =     250000.0
    Maxiter         =     50
    R_Convergence   =     1.0e-07
    E_Convergence   =     1.0e-06
    Restart         =     Yes
    DIIS            =     Yes
    AO Basis        =     NONE
    ABCD            =     NEW
    Cache Level     =     2
    Cache Type      =     LRU
    Print Level     =     1
    Num. of threads =     48
    # Amps to Print =     10
    Print MP2 Amps? =     No
    Analyze T2 Amps =     No
    Print Pair Ener =     No
    Local CC        =     No
    SCS-MP2         =     False
    SCSN-MP2        =     False
    SCS-CCSD        =     False

MP2 correlation energy -0.0823139854656573
                Solving CC Amplitude Equations
                ------------------------------
  Iter             Energy              RMS        T1Diag      D1Diag    New D1Diag    D2Diag
  ----     ---------------------    ---------   ----------  ----------  ----------   --------
     0        -0.082313985465657    0.000e+00    0.000000    0.000000    0.000000    0.000000
     1        -0.098996221520679    6.297e-02    0.012751    0.000000    0.000000    0.000000
     2        -0.105573180198262    2.686e-02    0.023770    0.000000    0.000000    0.000000
     3        -0.106110286188796    9.374e-03    0.029490    0.000000    0.000000    0.000000
     4        -0.106163426031991    3.021e-03    0.030976    0.000000    0.000000    0.000000
     5        -0.106158899050804    1.323e-03    0.031541    0.000000    0.000000    0.000000
     6        -0.106153335149864    5.236e-04    0.031644    0.000000    0.000000    0.000000
     7        -0.106160530257710    1.876e-04    0.031669    0.000000    0.000000    0.000000
     8        -0.106163165351411    7.338e-05    0.031679    0.000000    0.000000    0.000000
     9        -0.106161970347959    2.774e-05    0.031677    0.000000    0.000000    0.000000
    10        -0.106161824765074    1.070e-05    0.031677    0.000000    0.000000    0.000000
    11        -0.106161909101734    3.900e-06    0.031677    0.000000    0.000000    0.000000
    12        -0.106162008180169    1.557e-06    0.031677    0.000000    0.000000    0.000000
    13        -0.106161986410047    6.092e-07    0.031677    0.000000    0.000000    0.000000
    14        -0.106161978061165    2.201e-07    0.031677    0.000000    0.000000    0.000000
    15        -0.106161978864458    8.891e-08    0.031677    0.000000    0.000000    0.000000

    Iterations converged.

    Largest TIA Amplitudes:
              1   3        -0.0319700916
              1   2         0.0187312229
              3  25        -0.0154280952
              2  18        -0.0154280630
              1   1         0.0138822557
              1   7        -0.0127125741
              3  26         0.0087898339
              2  19         0.0087898305
              1   6        -0.0078815894
              0   2         0.0075542745

    Largest Tia Amplitudes:
              1   3         0.0387802211
              0   3         0.0292704834
              1   2        -0.0123824883
              0   5         0.0098644636
              1   7         0.0096814232
              1   0        -0.0091402480
              0   7         0.0091179895
              0   8        -0.0089922243
              1   8        -0.0068669241
              0   1        -0.0063061215

    Largest TIJAB Amplitudes:
      3   2  15   4        -0.0451299831
      3   2  25  18        -0.0382675581
      3   1  26   3        -0.0329339092
      2   1  19   3        -0.0329339054
      3   2  26  19        -0.0252366265
      3   2  28  18         0.0209824172
      3   2  25  21         0.0209824059
      3   2  28  21        -0.0195799914
      3   2  15   9        -0.0173651668
      3   2  16   4        -0.0173651668

    Largest Tijab Amplitudes:
      1   0  28  27         0.0100477407
      1   0  20  19         0.0100477403
      1   0  31  27         0.0067758691
      1   0  23  19         0.0067758687
      1   0   5   3        -0.0065554582
      1   0   3   1        -0.0062464151
      1   0   6   3         0.0062241156
      1   0  29  27        -0.0061610133
      1   0  21  19        -0.0061610132
      1   0   6   5         0.0059477808

    Largest TIjAb Amplitudes:
      1   1   3   3        -0.0637391730
      2   1   4  19         0.0357749931
      3   1  15  19         0.0357749885
      2   1  15  27         0.0357749871
      3   1   4  27        -0.0357749825
      2   1  19   3        -0.0316895600
      3   1  26   3        -0.0316895584
      2   0   4  19         0.0295124693
      3   0  15  19         0.0295124639
      2   0  15  27         0.0295124638

    SCF energy       (wfn)                    = -289.460281582916423
    Reference energy (file100)                = -289.460281582915968

    Opposite-spin MP2 correlation energy      =   -0.064647099907579
    Same-spin MP2 correlation energy          =   -0.017666885558078
    Singles MP2 correlation energy            =   -0.000000000000000
    MP2 correlation energy                    =   -0.082313985465657
      * MP2 total energy                      = -289.542595568381614

    Opposite-spin CCSD correlation energy     =   -0.086377564047493
    Same-spin CCSD correlation energy         =   -0.019784414816964
    Singles CCSD correlation energy           =   -0.000000000000000
    CCSD correlation energy                   =   -0.106161978864458
      * CCSD total energy                     = -289.566443561780432

            **************************
            *                        *
            *        CCTRIPLES       *
            *                        *
            **************************

    Wave function   =    CCSD_T
    Reference wfn   =      UHF

    Nuclear Rep. energy (wfn)                =    4.796858786560838
    SCF energy          (wfn)                = -289.460281582916423

      * CCSD(T) total energy                     = -289.569864031725672
*** Psi4 exiting successfully. Buy a developer a beer!
