                               Psi4 1.4a3.dev88

  ==> Input File <==

--------------------------------------------------------------------------
# Any line starting with the # character is a comment line
memory 250000 mb
molecule molecule{
-1 3
Si         0.0000000000        0.0000000000        0.0535071526
H          0.0000000000        0.0000000000       -1.4909370929
}

set {
  reference uhf
  basis aug-cc-pV(Q+d)Z
  scf_type OUT_OF_CORE
  freeze_core true
}

energy('ccsd(t)')
--------------------------------------------------------------------------

    Molecular point group: c2v

    Geometry (in Angstrom), charge = -1, multiplicity = 3:

       Center              X                  Y                   Z               Mass
    ------------   -----------------  -----------------  -----------------  -----------------
         SI           0.000000000000     0.000000000000     0.053701670270    27.976926534650
         H            0.000000000000     0.000000000000    -1.490742575230     1.007825032230

  Charge       = -1
  Multiplicity = 3
  Basis Set: AUG-CC-PV(Q+D)Z
    Blend: AUG-CC-PV(Q+D)Z

    Orbital Energies [Eh]
    ---------------------

    Alpha Occupied:

       1A1   -68.547822     2A1    -5.893416     1B2    -4.001980
       1B1    -4.001980     3A1    -3.992583     4A1    -0.435199
       5A1    -0.162691     2B2    -0.056500     2B1    -0.056499

    Alpha Virtual:

       6A1     0.139198     7A1     0.153602     3B2     0.171876
       3B1     0.171876     8A1     0.232097     4B1     0.251797
       4B2     0.251797     9A1     0.257749     1A2     0.257749
      10A1     0.276250    11A1     0.326574    12A1     0.383378
       5B2     0.410659     5B1     0.410659     6B2     0.460320
       6B1     0.460321    13A1     0.505723     2A2     0.505723
      14A1     0.507168     7B1     0.507280     7B2     0.507280
       8B2     0.515489     8B1     0.515489    15A1     0.515511
       3A2     0.515511    16A1     0.558687    17A1     0.574857
       9B2     0.616955     9B1     0.616955    18A1     0.654676
      19A1     0.839782    10B2     0.893634    10B1     0.893634
      20A1     0.973484     4A2     0.973484    21A1     0.987805
       5A2     1.058338    22A1     1.058338    11B2     1.062248
      11B1     1.062248    23A1     1.107815    12B2     1.170592
      12B1     1.170592    24A1     1.193331     6A2     1.193331
      13B2     1.227838    13B1     1.227838     7A2     1.242770
      25A1     1.242770    14B1     1.247399    14B2     1.247399
      15B2     1.276860    15B1     1.276860    26A1     1.292052
      27A1     1.395149    16B1     1.398699    16B2     1.398699
      28A1     1.419511     8A2     1.419511    29A1     1.439527
      17B1     1.719585    17B2     1.719585    30A1     1.803242
      31A1     1.833299    18B1     1.978998    18B2     1.978998
      19B1     2.123311    19B2     2.123311     9A2     2.192163
      32A1     2.192163    33A1     2.215903    34A1     2.342913
      10A2     2.356315    35A1     2.356315    20B1     2.442089
      20B2     2.442089    21B2     2.629327    21B1     2.629327
      11A2     2.630070    36A1     2.630070    22B1     2.639738
      22B2     2.639738    37A1     2.656025    12A2     2.756222
      38A1     2.756222    39A1     2.855700    40A1     2.905765
      13A2     2.905765    23B1     2.912894    23B2     2.912894
      24B1     2.921855    24B2     2.921855    41A1     3.111969
      14A2     3.262614    42A1     3.262614    25B1     3.541660
      25B2     3.541660    43A1     3.781876    26B1     3.840649
      26B2     3.840649    44A1     4.084893    27B1     5.821041
      27B2     5.821041    15A2     6.340325    45A1     6.340325
      28B1     6.367175    28B2     6.367175    46A1     6.587140
      29B1     6.888776    29B2     6.888776    16A2     7.106167
      47A1     7.106167    30B1     7.285802    30B2     7.285802
      48A1     7.340419    49A1     7.923187    50A1     8.189049
      31B1     8.763062    31B2     8.763062    17A2     8.805602
      51A1     8.805602    52A1     9.306840    32B1     9.380976
      32B2     9.380976    53A1     9.681467    54A1    12.412996

    Beta Occupied:

       1A1   -68.541297     2A1    -5.884943     3A1    -3.989986
       1B1    -3.981662     1B2    -3.981662     4A1    -0.347366
       5A1    -0.123732

    Beta Virtual:

       6A1     0.141694     7A1     0.155221     2B2     0.161892
       2B1     0.161892     8A1     0.245392     3B2     0.259702
       3B1     0.259702     1A2     0.276082     9A1     0.276082
       4B1     0.279264     4B2     0.279264    10A1     0.281410
      11A1     0.335104    12A1     0.396096     5B2     0.423095
       5B1     0.423095     6B1     0.517222     6B2     0.517222
       2A2     0.518048    13A1     0.518048    14A1     0.519149
       7B1     0.525355     7B2     0.525355     8B1     0.535085
       8B2     0.535085    15A1     0.577153     3A2     0.588247
      16A1     0.588247    17A1     0.589336     9B1     0.641151
       9B2     0.641151    18A1     0.662960    19A1     0.851278
      10B2     0.901710    10B1     0.901710     4A2     0.982932
      20A1     0.982932    21A1     0.995527    11B1     1.085220
      11B2     1.085220     5A2     1.114586    22A1     1.114586
      23A1     1.119843    12B1     1.215777    12B2     1.215777
       6A2     1.219538    24A1     1.219538    13B1     1.243831
      13B2     1.243831    14B1     1.266446    14B2     1.266446
       7A2     1.268907    25A1     1.268907    26A1     1.304415
      15B1     1.318155    15B2     1.318155    27A1     1.404307
      16B1     1.412562    16B2     1.412562     8A2     1.434346
      28A1     1.434346    29A1     1.450189    17B1     1.727785
      17B2     1.727785    30A1     1.817383    31A1     1.842578
      18B1     1.985812    18B2     1.985812    19B1     2.130849
      19B2     2.130849     9A2     2.213696    32A1     2.213696
      33A1     2.218281    34A1     2.350945    10A2     2.362998
      35A1     2.362998    20B1     2.453503    20B2     2.453503
      11A2     2.646462    36A1     2.646462    21B1     2.650350
      21B2     2.650350    37A1     2.662532    22B2     2.665432
      22B1     2.665432    12A2     2.770441    38A1     2.770441
      39A1     2.854190    23B1     2.928883    23B2     2.928883
      24B1     2.935946    24B2     2.935946    40A1     2.937789
      13A2     2.937789    41A1     3.123308    14A2     3.274733
      42A1     3.274733    25B1     3.546787    25B2     3.546787
      43A1     3.784244    26B1     3.848992    26B2     3.848992
      44A1     4.087935    27B1     5.838613    27B2     5.838613
      15A2     6.350411    45A1     6.350411    28B1     6.371817
      28B2     6.371817    46A1     6.590931    29B1     6.889723
      29B2     6.889723    16A2     7.107425    47A1     7.107425
      30B1     7.287629    30B2     7.287629    48A1     7.342283
      49A1     7.924913    50A1     8.188081    31B1     8.762439
      31B2     8.762439    17A2     8.805393    51A1     8.805393
      52A1     9.310073    32B1     9.381010    32B2     9.381010
      53A1     9.681202    54A1    12.418420

    Final Occupation by Irrep:
             A1    A2    B1    B2
    DOCC [     5,    0,    1,    1 ]
    SOCC [     0,    0,    1,    1 ]

  @UHF Final Energy:  -289.46994248538527

   => Energetics <=

    Nuclear Repulsion Energy =              4.7968587865608381
    One-Electron Energy =                -414.5342850881219192
    Two-Electron Energy =                 120.2674838161758117
    Total Energy =                       -289.4699424853852747

  UHF NO Occupations:
  HONO-2 :    5 A1 1.9816342
  HONO-1 :    2 B1 1.0000000
  HONO-0 :    2 B2 1.0000000
  LUNO+0 :    6 A1 0.0183658
  LUNO+1 :    7 A1 0.0005905
  LUNO+2 :    3 B2 0.0000013
  LUNO+3 :    3 B1 0.0000013

Computation Completed

Properties will be evaluated at   0.000000,   0.000000,   0.000000 [a0]

Properties computed using the SCF density matrix

  Nuclear Dipole Moment: [e a0]
     X:     0.0000      Y:     0.0000      Z:    -1.3964

  Electronic Dipole Moment: [e a0]
     X:     0.0000      Y:     0.0000      Z:     1.3340

  Dipole Moment: [e a0]
     X:     0.0000      Y:     0.0000      Z:    -0.0624     Total:     0.0624

  Dipole Moment: [D]
     X:     0.0000      Y:     0.0000      Z:    -0.1585     Total:     0.1585

*** tstop() called on l43 at Wed Jan 20 21:57:25 2021
Module time:
	user time   =      21.03 seconds =       0.35 minutes
	system time =       5.45 seconds =       0.09 minutes
	total time  =         18 seconds =       0.30 minutes
Total time:
	user time   =      21.03 seconds =       0.35 minutes
	system time =       5.45 seconds =       0.09 minutes
	total time  =         18 seconds =       0.30 minutes

*** tstart() called on l43
*** at Wed Jan 20 21:57:25 2021

	Wfn Parameters:
	--------------------
	Wavefunction         = CCSD_T
	Number of irreps     = 4
	Number of MOs        = 135
	Number of active MOs = 130
	AO-Basis             = NONE
	Semicanonical        = false
	Reference            = UHF
	Print Level          = 1

	IRREP	# MOs	# FZDC	# DOCC	# SOCC	# VIRT	# FZVR
	-----	-----	------	------	------	------	------
	 A1	   54	    3	    2	    0	    49	    0
	 A2	   17	    0	    0	    0	    17	    0
	 B1	   32	    1	    0	    1	    30	    0
	 B2	   32	    1	    0	    1	    30	    0
	Transforming integrals...
	IWL integrals will be deleted.
	(OO|OO)...
	Presorting SO-basis two-electron integrals.
	Sorting File: SO Ints (nn|nn) nbuckets = 1
	Constructing frozen core operators
	Starting AA/AB first half-transformation.
	Sorting AA/AB half-transformed integrals.
	Starting BB first half-transformation.
	Sorting BB half-transformed integrals.
	First half integral transformation complete.
	Starting AA second half-transformation.
	Starting AB second half-transformation.
	Starting BB second half-transformation.
	Two-electron integral transformation complete.
	(OO|OV)...
	Starting AA second half-transformation.
	Starting AB second half-transformation.
	Starting BB second half-transformation.
	Two-electron integral transformation complete.
	(OO|VV)...
	Starting AA second half-transformation.
	Starting AB second half-transformation.
	Starting BB second half-transformation.
	Two-electron integral transformation complete.
	(OV|OO)...
	Starting AA/AB first half-transformation.
	Sorting AA/AB half-transformed integrals.
	Starting BB first half-transformation.
	Sorting BB half-transformed integrals.
	First half integral transformation complete.
	Starting AA second half-transformation.
	Starting AB second half-transformation.
	Starting BB second half-transformation.
	Two-electron integral transformation complete.
	(OV|OV)...
	Starting AA second half-transformation.
	Starting AB second half-transformation.
	Starting BB second half-transformation.
	Two-electron integral transformation complete.
	(OV|VV)...
	Starting AA second half-transformation.
	Starting AB second half-transformation.
	Starting BB second half-transformation.
	Two-electron integral transformation complete.
	(VV|OO)...
	Starting AA/AB first half-transformation.
	Sorting AA/AB half-transformed integrals.
	Starting BB first half-transformation.
	Sorting BB half-transformed integrals.
	First half integral transformation complete.
	Starting AA second half-transformation.
	Starting AB second half-transformation.
	Starting BB second half-transformation.
	Two-electron integral transformation complete.
	(VV|OV)...
	Starting AA second half-transformation.
	Starting AB second half-transformation.
	Starting BB second half-transformation.
	Two-electron integral transformation complete.
	(VV|VV)...
	Starting AA second half-transformation.
	Starting AB second half-transformation.
	Starting BB second half-transformation.
	Two-electron integral transformation complete.
	Frozen core energy     =   -288.60335341240147

	Size of irrep 0 of <AB|CD> integrals:      4.761 (MW) /     38.089 (MB)
	Size of irrep 1 of <AB|CD> integrals:      3.003 (MW) /     24.026 (MB)
	Size of irrep 2 of <AB|CD> integrals:      3.920 (MW) /     31.363 (MB)
	Size of irrep 3 of <AB|CD> integrals:      3.920 (MW) /     31.363 (MB)
	Total:                                    15.605 (MW) /    124.842 (MB)

	Size of irrep 0 of <ab|cd> integrals:      5.027 (MW) /     40.213 (MB)
	Size of irrep 1 of <ab|cd> integrals:      3.218 (MW) /     25.747 (MB)
	Size of irrep 2 of <ab|cd> integrals:      4.186 (MW) /     33.489 (MB)
	Size of irrep 3 of <ab|cd> integrals:      4.186 (MW) /     33.489 (MB)
	Total:                                    16.617 (MW) /    132.938 (MB)

	Size of irrep 0 of <Ab|Cd> integrals:     20.703 (MW) /    165.620 (MB)
	Size of irrep 1 of <Ab|Cd> integrals:     12.433 (MW) /     99.461 (MB)
	Size of irrep 2 of <Ab|Cd> integrals:     16.209 (MW) /    129.669 (MB)
	Size of irrep 3 of <Ab|Cd> integrals:     16.209 (MW) /    129.669 (MB)
	Total:                                    65.553 (MW) /    524.420 (MB)

	Size of irrep 0 of <IA|BC> integrals:      0.709 (MW) /      5.675 (MB)
	Size of irrep 1 of <IA|BC> integrals:      0.326 (MW) /      2.606 (MB)
	Size of irrep 2 of <IA|BC> integrals:      0.499 (MW) /      3.992 (MB)
	Size of irrep 3 of <IA|BC> integrals:      0.499 (MW) /      3.992 (MB)
	Total:                                     2.033 (MW) /     16.265 (MB)

	Size of irrep 0 of <ia|bc> integrals:      0.452 (MW) /      3.616 (MB)
	Size of irrep 1 of <ia|bc> integrals:      0.122 (MW) /      0.976 (MB)
	Size of irrep 2 of <ia|bc> integrals:      0.254 (MW) /      2.030 (MB)
	Size of irrep 3 of <ia|bc> integrals:      0.254 (MW) /      2.030 (MB)
	Total:                                     1.081 (MW) /      8.651 (MB)

	Size of irrep 0 of <Ia|Bc> integrals:      0.728 (MW) /      5.824 (MB)
	Size of irrep 1 of <Ia|Bc> integrals:      0.338 (MW) /      2.708 (MB)
	Size of irrep 2 of <Ia|Bc> integrals:      0.515 (MW) /      4.123 (MB)
	Size of irrep 3 of <Ia|Bc> integrals:      0.515 (MW) /      4.123 (MB)
	Total:                                     2.097 (MW) /     16.777 (MB)

	Size of irrep 0 of <iA|bC> integrals:      0.446 (MW) /      3.567 (MB)
	Size of irrep 1 of <iA|bC> integrals:      0.120 (MW) /      0.959 (MB)
	Size of irrep 2 of <iA|bC> integrals:      0.242 (MW) /      1.932 (MB)
	Size of irrep 3 of <iA|bC> integrals:      0.242 (MW) /      1.932 (MB)
	Total:                                     1.049 (MW) /      8.391 (MB)

	Size of irrep 0 of tIjAb amplitudes:       0.018 (MW) /      0.146 (MB)
	Size of irrep 1 of tIjAb amplitudes:       0.000 (MW) /      0.000 (MB)
	Size of irrep 2 of tIjAb amplitudes:       0.008 (MW) /      0.064 (MB)
	Size of irrep 3 of tIjAb amplitudes:       0.008 (MW) /      0.064 (MB)
	Total:                                     0.034 (MW) /      0.274 (MB)

	Nuclear Rep. energy          =      4.79685878656084
	SCF energy                   =   -289.46994248538527
	One-electron energy          =    -10.14490898403741
	Two-electron (AA) energy     =      1.55402100872438
	Two-electron (BB) energy     =      0.25196847953699
	Two-electron (AB) energy     =      2.67547163622952
	Two-electron energy          =      4.48146112449089
	Reference energy             =   -289.46994248538715

*** tstop() called on l43 at Wed Jan 20 21:57:39 2021
Module time:
	user time   =       9.91 seconds =       0.17 minutes
	system time =       4.45 seconds =       0.07 minutes
	total time  =         14 seconds =       0.23 minutes
Total time:
	user time   =      30.94 seconds =       0.52 minutes
	system time =       9.90 seconds =       0.17 minutes
	total time  =         32 seconds =       0.53 minutes
            **************************
            *                        *
            *        CCENERGY        *
            *                        *
            **************************

    Nuclear Rep. energy (wfn)     =    4.796858786560838
    SCF energy          (wfn)     = -289.469942485385275
    Reference energy    (file100) = -289.469942485387151

    Input parameters:
    -----------------
    Wave function   =     CCSD_T
    Reference wfn   =     UHF
    Brueckner       =     No
    Memory (Mbytes) =     250000.0
    Maxiter         =     50
    R_Convergence   =     1.0e-07
    E_Convergence   =     1.0e-06
    Restart         =     Yes
    DIIS            =     Yes
    AO Basis        =     NONE
    ABCD            =     NEW
    Cache Level     =     2
    Cache Type      =     LRU
    Print Level     =     1
    Num. of threads =     48
    # Amps to Print =     10
    Print MP2 Amps? =     No
    Analyze T2 Amps =     No
    Print Pair Ener =     No
    Local CC        =     No
    SCS-MP2         =     False
    SCSN-MP2        =     False
    SCS-CCSD        =     False

MP2 correlation energy -0.1044985313438049
                Solving CC Amplitude Equations
                ------------------------------
  Iter             Energy              RMS        T1Diag      D1Diag    New D1Diag    D2Diag
  ----     ---------------------    ---------   ----------  ----------  ----------   --------
     0        -0.104498531343805    0.000e+00    0.000000    0.000000    0.000000    0.000000
     1        -0.117908535042954    6.080e-02    0.014807    0.000000    0.000000    0.000000
     2        -0.124174798365323    2.605e-02    0.025302    0.000000    0.000000    0.000000
     3        -0.124752865297477    9.387e-03    0.030471    0.000000    0.000000    0.000000
     4        -0.124786560011722    3.686e-03    0.032435    0.000000    0.000000    0.000000
     5        -0.124776904340177    1.469e-03    0.033060    0.000000    0.000000    0.000000
     6        -0.124777599902575    5.798e-04    0.033204    0.000000    0.000000    0.000000
     7        -0.124782294213476    2.304e-04    0.033224    0.000000    0.000000    0.000000
     8        -0.124784067058491    7.879e-05    0.033232    0.000000    0.000000    0.000000
     9        -0.124783830202218    3.323e-05    0.033234    0.000000    0.000000    0.000000
    10        -0.124783671236019    1.439e-05    0.033233    0.000000    0.000000    0.000000
    11        -0.124783707952698    5.246e-06    0.033233    0.000000    0.000000    0.000000
    12        -0.124783785540315    2.344e-06    0.033233    0.000000    0.000000    0.000000
    13        -0.124783854861007    1.064e-06    0.033233    0.000000    0.000000    0.000000
    14        -0.124783871715712    4.565e-07    0.033233    0.000000    0.000000    0.000000
    15        -0.124783872714385    2.087e-07    0.033233    0.000000    0.000000    0.000000
    16        -0.124783871395141    9.175e-08    0.033233    0.000000    0.000000    0.000000

    Iterations converged.

    Largest TIA Amplitudes:
              1   8        -0.0282209265
              1   2         0.0215974125
              1   6         0.0185699873
              1   4        -0.0177584749
              1   5         0.0115863949
              2  68        -0.0109089718
              3  98        -0.0109089342
              0   8         0.0089247995
              0   2        -0.0083873833
              1  15         0.0083217700

    Largest Tia Amplitudes:
              1   8         0.0255198042
              1   6        -0.0216706374
              1   4         0.0215442003
              0   8        -0.0212871601
              0   6         0.0211033944
              0   4        -0.0151538334
              1   2        -0.0109517482
              1   5        -0.0092672919
              0   5         0.0090394019
              0  11         0.0089720284

      * MP2 total energy                      = -289.574441016730930
      * CCSD total energy                     = -289.594726356782303
      * CCSD(T) total energy                     = -289.600479936967247
*** Psi4 exiting successfully. Buy a developer a beer!
