                               Psi4 1.4a3.dev88

  ==> Input File <==

--------------------------------------------------------------------------
# Any line starting with the # character is a comment line
memory 250000 mb
molecule molecule{
-1 3
Si         0.0000000000        0.0000000000        0.0535071526
H          0.0000000000        0.0000000000       -1.4909370929
}

set {
  reference uhf
  basis aug-cc-pV(t+d)Z
  scf_type OUT_OF_CORE
  freeze_core true
}

energy('ccsd(t)')
--------------------------------------------------------------------------

    Molecular point group: c2v

    Geometry (in Angstrom), charge = -1, multiplicity = 3:

       Center              X                  Y                   Z               Mass
    ------------   -----------------  -----------------  -----------------  -----------------
         SI           0.000000000000     0.000000000000     0.053701670270    27.976926534650
         H            0.000000000000     0.000000000000    -1.490742575230     1.007825032230

  Charge       = -1
  Multiplicity = 3
  Basis Set: AUG-CC-PV(T+D)Z
    Blend: AUG-CC-PV(T+D)Z

    Orbital Energies [Eh]
    ---------------------

    Alpha Occupied:

       1A1   -68.549037     2A1    -5.894236     1B2    -4.002914
       1B1    -4.002914     3A1    -3.993466     4A1    -0.435319
       5A1    -0.162602     2B2    -0.056357     2B1    -0.056357

    Alpha Virtual:

       6A1     0.150228     7A1     0.183432     3B2     0.204745
       3B1     0.204745     8A1     0.269119     1A2     0.306194
       9A1     0.306194     4B1     0.306307     4B2     0.306307
      10A1     0.313304    11A1     0.411796    12A1     0.450386
       5B2     0.492385     5B1     0.492385     2A2     0.643601
      13A1     0.643601     6B2     0.651354     6B1     0.651354
       7B2     0.669617     7B1     0.669617    14A1     0.676654
       8B2     0.683929     8B1     0.683929     3A2     0.688070
      15A1     0.688070    16A1     0.742793    17A1     0.796390
       9B2     0.809267     9B1     0.809267    18A1     0.847894
      19A1     1.057356     4A2     1.215839    20A1     1.215839
      10B2     1.246605    10B1     1.246605    21A1     1.402777
      11B2     1.464360    11B1     1.464360    22A1     1.477121
       5A2     1.477121    23A1     1.533050    12B2     1.606737
      12B1     1.606737    13B2     1.664934    13B1     1.664934
       6A2     1.686082    24A1     1.686082    25A1     1.804487
      14B1     1.953780    14B2     1.953780    26A1     2.177472
      15B2     2.866858    15B1     2.866858    27A1     3.039284
      28A1     3.255873    29A1     3.895957    30A1     4.203460
       7A2     4.203460    16B1     4.305312    16B2     4.305312
      31A1     4.518622    17B1     4.593970    17B2     4.593970
      32A1     5.036316     8A2     5.036316    33A1     5.120308
      18B1     5.169308    18B2     5.169308    34A1     6.216020

    Beta Occupied:

       1A1   -68.542017     2A1    -5.885813     3A1    -3.990752
       1B1    -3.981962     1B2    -3.981962     4A1    -0.347390
       5A1    -0.123667

    Beta Virtual:

       6A1     0.153859     2B2     0.183650     2B1     0.183650
       7A1     0.186397     8A1     0.288031     3B1     0.309070
       3B2     0.309070     9A1     0.320433     4B2     0.322839
       4B1     0.322839    10A1     0.340356     1A2     0.340356
      11A1     0.430764    12A1     0.461895     5B2     0.505116
       5B1     0.505116    13A1     0.686528     6B1     0.701502
       6B2     0.701502    14A1     0.709064     2A2     0.709064
       7B1     0.715916     7B2     0.715916     8B1     0.716409
       8B2     0.716409    15A1     0.728568     3A2     0.728568
      16A1     0.761997    17A1     0.815185     9B1     0.827667
       9B2     0.827667    18A1     0.859626    19A1     1.070475
      20A1     1.226161     4A2     1.226161    10B1     1.251578
      10B2     1.251578    21A1     1.408372    11B1     1.481491
      11B2     1.481491    22A1     1.516895     5A2     1.516895
      23A1     1.541106    12B1     1.623420    12B2     1.623420
      13B1     1.714550    13B2     1.714550    24A1     1.717457
       6A2     1.717457    25A1     1.818653    14B1     1.970875
      14B2     1.970875    26A1     2.182095    15B1     2.896669
      15B2     2.896669    27A1     3.044713    28A1     3.258361
      29A1     3.904736    30A1     4.205051     7A2     4.205051
      16B1     4.306684    16B2     4.306684    31A1     4.517926
      17B1     4.593924    17B2     4.593924    32A1     5.045840
       8A2     5.045840    33A1     5.122147    18B1     5.175189
      18B2     5.175189    34A1     6.221256

    Final Occupation by Irrep:
             A1    A2    B1    B2
    DOCC [     5,    0,    1,    1 ]
    SOCC [     0,    0,    1,    1 ]

  @UHF Final Energy:  -289.46778851459834

   => Energetics <=

    Nuclear Repulsion Energy =              4.7968587865608381
    One-Electron Energy =                -414.5225301863933396
    Two-Electron Energy =                 120.2578828852341530
    Total Energy =                       -289.4677885145983396

  UHF NO Occupations:
  HONO-2 :    5 A1 1.9817739
  HONO-1 :    2 B2 1.0000000
  HONO-0 :    2 B1 1.0000000
  LUNO+0 :    6 A1 0.0182261
  LUNO+1 :    7 A1 0.0005832
  LUNO+2 :    3 B2 0.0000025
  LUNO+3 :    3 B1 0.0000025

Computation Completed

Properties will be evaluated at   0.000000,   0.000000,   0.000000 [a0]

Properties computed using the SCF density matrix

  Nuclear Dipole Moment: [e a0]
     X:     0.0000      Y:     0.0000      Z:    -1.3964

  Electronic Dipole Moment: [e a0]
     X:     0.0000      Y:     0.0000      Z:     1.3344

  Dipole Moment: [e a0]
     X:     0.0000      Y:     0.0000      Z:    -0.0619     Total:     0.0619

  Dipole Moment: [D]
     X:     0.0000      Y:     0.0000      Z:    -0.1574     Total:     0.1574

*** tstop() called on n412-040.vsc4.prov at Tue Jan 26 18:35:38 2021
Module time:
	user time   =      34.50 seconds =       0.57 minutes
	system time =       2.30 seconds =       0.04 minutes
	total time  =          5 seconds =       0.08 minutes
Total time:
	user time   =      34.50 seconds =       0.57 minutes
	system time =       2.30 seconds =       0.04 minutes
	total time  =          5 seconds =       0.08 minutes

*** tstart() called on n412-040.vsc4.prov
*** at Tue Jan 26 18:35:38 2021

	Wfn Parameters:
	--------------------
	Wavefunction         = CCSD_T
	Number of irreps     = 4
	Number of MOs        = 78
	Number of active MOs = 73
	AO-Basis             = NONE
	Semicanonical        = false
	Reference            = UHF
	Print Level          = 1

	IRREP	# MOs	# FZDC	# DOCC	# SOCC	# VIRT	# FZVR
	-----	-----	------	------	------	------	------
	 A1	   34	    3	    2	    0	    29	    0
	 A2	   8	    0	    0	    0	    8	    0
	 B1	   18	    1	    0	    1	    16	    0
	 B2	   18	    1	    0	    1	    16	    0
	Transforming integrals...
	IWL integrals will be deleted.
	(OO|OO)...
	Presorting SO-basis two-electron integrals.
	Sorting File: SO Ints (nn|nn) nbuckets = 1
	Constructing frozen core operators
	Starting AA/AB first half-transformation.
	Sorting AA/AB half-transformed integrals.
	Starting BB first half-transformation.
	Sorting BB half-transformed integrals.
	First half integral transformation complete.
	Starting AA second half-transformation.
	Starting AB second half-transformation.
	Starting BB second half-transformation.
	Two-electron integral transformation complete.
	(OO|OV)...
	Starting AA second half-transformation.
	Starting AB second half-transformation.
	Starting BB second half-transformation.
	Two-electron integral transformation complete.
	(OO|VV)...
	Starting AA second half-transformation.
	Starting AB second half-transformation.
	Starting BB second half-transformation.
	Two-electron integral transformation complete.
	(OV|OO)...
	Starting AA/AB first half-transformation.
	Sorting AA/AB half-transformed integrals.
	Starting BB first half-transformation.
	Sorting BB half-transformed integrals.
	First half integral transformation complete.
	Starting AA second half-transformation.
	Starting AB second half-transformation.
	Starting BB second half-transformation.
	Two-electron integral transformation complete.
	(OV|OV)...
	Starting AA second half-transformation.
	Starting AB second half-transformation.
	Starting BB second half-transformation.
	Two-electron integral transformation complete.
	(OV|VV)...
	Starting AA second half-transformation.
	Starting AB second half-transformation.
	Starting BB second half-transformation.
	Two-electron integral transformation complete.
	(VV|OO)...
	Starting AA/AB first half-transformation.
	Sorting AA/AB half-transformed integrals.
	Starting BB first half-transformation.
	Sorting BB half-transformed integrals.
	First half integral transformation complete.
	Starting AA second half-transformation.
	Starting AB second half-transformation.
	Starting BB second half-transformation.
	Two-electron integral transformation complete.
	(VV|OV)...
	Starting AA second half-transformation.
	Starting AB second half-transformation.
	Starting BB second half-transformation.
	Two-electron integral transformation complete.
	(VV|VV)...
	Starting AA second half-transformation.
	Starting AB second half-transformation.
	Starting BB second half-transformation.
	Two-electron integral transformation complete.
	Frozen core energy     =   -288.60214701240795

	Size of irrep 0 of <AB|CD> integrals:      0.454 (MW) /      3.634 (MB)
	Size of irrep 1 of <AB|CD> integrals:      0.238 (MW) /      1.905 (MB)
	Size of irrep 2 of <AB|CD> integrals:      0.350 (MW) /      2.804 (MB)
	Size of irrep 3 of <AB|CD> integrals:      0.350 (MW) /      2.804 (MB)
	Total:                                     1.393 (MW) /     11.147 (MB)

	Size of irrep 0 of <ab|cd> integrals:      0.498 (MW) /      3.987 (MB)
	Size of irrep 1 of <ab|cd> integrals:      0.271 (MW) /      2.172 (MB)
	Size of irrep 2 of <ab|cd> integrals:      0.396 (MW) /      3.165 (MB)
	Size of irrep 3 of <ab|cd> integrals:      0.396 (MW) /      3.165 (MB)
	Total:                                     1.561 (MW) /     12.489 (MB)

	Size of irrep 0 of <Ab|Cd> integrals:      2.100 (MW) /     16.797 (MB)
	Size of irrep 1 of <Ab|Cd> integrals:      1.016 (MW) /      8.129 (MB)
	Size of irrep 2 of <Ab|Cd> integrals:      1.491 (MW) /     11.927 (MB)
	Size of irrep 3 of <Ab|Cd> integrals:      1.491 (MW) /     11.927 (MB)
	Total:                                     6.097 (MW) /     48.779 (MB)

	Size of irrep 0 of <IA|BC> integrals:      0.128 (MW) /      1.020 (MB)
	Size of irrep 1 of <IA|BC> integrals:      0.047 (MW) /      0.375 (MB)
	Size of irrep 2 of <IA|BC> integrals:      0.082 (MW) /      0.654 (MB)
	Size of irrep 3 of <IA|BC> integrals:      0.082 (MW) /      0.654 (MB)
	Total:                                     0.338 (MW) /      2.702 (MB)

	Size of irrep 0 of <ia|bc> integrals:      0.086 (MW) /      0.688 (MB)
	Size of irrep 1 of <ia|bc> integrals:      0.017 (MW) /      0.133 (MB)
	Size of irrep 2 of <ia|bc> integrals:      0.043 (MW) /      0.342 (MB)
	Size of irrep 3 of <ia|bc> integrals:      0.043 (MW) /      0.342 (MB)
	Total:                                     0.188 (MW) /      1.506 (MB)

	Size of irrep 0 of <Ia|Bc> integrals:      0.133 (MW) /      1.066 (MB)
	Size of irrep 1 of <Ia|Bc> integrals:      0.050 (MW) /      0.403 (MB)
	Size of irrep 2 of <Ia|Bc> integrals:      0.087 (MW) /      0.694 (MB)
	Size of irrep 3 of <Ia|Bc> integrals:      0.087 (MW) /      0.694 (MB)
	Total:                                     0.357 (MW) /      2.857 (MB)

	Size of irrep 0 of <iA|bC> integrals:      0.084 (MW) /      0.672 (MB)
	Size of irrep 1 of <iA|bC> integrals:      0.016 (MW) /      0.129 (MB)
	Size of irrep 2 of <iA|bC> integrals:      0.039 (MW) /      0.313 (MB)
	Size of irrep 3 of <iA|bC> integrals:      0.039 (MW) /      0.313 (MB)
	Total:                                     0.178 (MW) /      1.427 (MB)

	Size of irrep 0 of tIjAb amplitudes:       0.006 (MW) /      0.046 (MB)
	Size of irrep 1 of tIjAb amplitudes:       0.000 (MW) /      0.000 (MB)
	Size of irrep 2 of tIjAb amplitudes:       0.002 (MW) /      0.020 (MB)
	Size of irrep 3 of tIjAb amplitudes:       0.002 (MW) /      0.020 (MB)
	Total:                                     0.011 (MW) /      0.085 (MB)

	Nuclear Rep. energy          =      4.79685878656084
	SCF energy                   =   -289.46778851459834
	One-electron energy          =    -10.14330822845595
	Two-electron (AA) energy     =      1.55373923786022
	Two-electron (BB) energy     =      0.25201669547131
	Two-electron (AB) energy     =      2.67505200637310
	Two-electron energy          =      4.48080793970463
	Reference energy             =   -289.46778851459845

*** tstop() called on n412-040.vsc4.prov at Tue Jan 26 18:35:44 2021
Module time:
	user time   =       0.94 seconds =       0.02 minutes
	system time =       0.69 seconds =       0.01 minutes
	total time  =          6 seconds =       0.10 minutes
Total time:
	user time   =      35.44 seconds =       0.59 minutes
	system time =       2.99 seconds =       0.05 minutes
	total time  =         11 seconds =       0.18 minutes
            **************************
            *                        *
            *        CCENERGY        *
            *                        *
            **************************

    Nuclear Rep. energy (wfn)     =    4.796858786560838
    SCF energy          (wfn)     = -289.467788514598340
    Reference energy    (file100) = -289.467788514598453

    Input parameters:
    -----------------
    Wave function   =     CCSD_T
    Reference wfn   =     UHF
    Brueckner       =     No
    Memory (Mbytes) =     250000.0
    Maxiter         =     50
    R_Convergence   =     1.0e-07
    E_Convergence   =     1.0e-06
    Restart         =     Yes
    DIIS            =     Yes
    AO Basis        =     NONE
    ABCD            =     NEW
    Cache Level     =     2
    Cache Type      =     LRU
    Print Level     =     1
    Num. of threads =     48
    # Amps to Print =     10
    Print MP2 Amps? =     No
    Analyze T2 Amps =     No
    Print Pair Ener =     No
    Local CC        =     No
    SCS-MP2         =     False
    SCSN-MP2        =     False
    SCS-CCSD        =     False

MP2 correlation energy -0.0987450844538805
                Solving CC Amplitude Equations
                ------------------------------
  Iter             Energy              RMS        T1Diag      D1Diag    New D1Diag    D2Diag
  ----     ---------------------    ---------   ----------  ----------  ----------   --------
     0        -0.098745084453880    0.000e+00    0.000000    0.000000    0.000000    0.000000
     1        -0.114159120076965    6.175e-02    0.014051    0.000000    0.000000    0.000000
     2        -0.120525956261477    2.631e-02    0.024872    0.000000    0.000000    0.000000
     3        -0.121120813375394    9.293e-03    0.030325    0.000000    0.000000    0.000000
     4        -0.121145703638856    3.326e-03    0.032004    0.000000    0.000000    0.000000
     5        -0.121133884351970    1.417e-03    0.032625    0.000000    0.000000    0.000000
     6        -0.121136380698330    5.413e-04    0.032744    0.000000    0.000000    0.000000
     7        -0.121141564080012    2.114e-04    0.032765    0.000000    0.000000    0.000000
     8        -0.121143041140561    7.408e-05    0.032775    0.000000    0.000000    0.000000
     9        -0.121142549699226    2.778e-05    0.032775    0.000000    0.000000    0.000000
    10        -0.121142465461304    1.122e-05    0.032774    0.000000    0.000000    0.000000
    11        -0.121142468085726    4.559e-06    0.032774    0.000000    0.000000    0.000000
    12        -0.121142572060456    1.827e-06    0.032774    0.000000    0.000000    0.000000
    13        -0.121142609957634    7.319e-07    0.032774    0.000000    0.000000    0.000000
    14        -0.121142617490341    3.156e-07    0.032774    0.000000    0.000000    0.000000
    15        -0.121142615351366    1.473e-07    0.032774    0.000000    0.000000    0.000000
    16        -0.121142614529377    5.813e-08    0.032774    0.000000    0.000000    0.000000

    Iterations converged.

    Largest TIA Amplitudes:
              1   2        -0.0250852051
              1   4         0.0216624274
              1   8         0.0207982235
              1   5         0.0205079007
              0   2         0.0097145445
              1   6         0.0095187591
              3  54         0.0092306901
              2  38         0.0092306879
              3  55         0.0090518344
              2  39         0.0090518323

    Largest Tia Amplitudes:
              1   3         0.0253671861
              1   5        -0.0201351820
              0   6         0.0190597180
              0   5        -0.0187393875
              1   6         0.0186459419
              0   3         0.0175178436
              1   7         0.0156758484
              1   2        -0.0152714371
              0   7         0.0130151146
              0   2        -0.0089518834

    Largest TIJAB Amplitudes:
      3   2  53  37        -0.0330060006
      3   2  29   3        -0.0324418058
      3   2  30   7        -0.0284905543
      3   2  29   7        -0.0238937348
      3   2  30   3        -0.0238937348
      3   2  56  37         0.0217197751
      3   2  53  40         0.0217197427
      3   2  56  40        -0.0212030274
      3   2  54  38        -0.0156269098
      2   1  38   5         0.0153583213

    Largest Tijab Amplitudes:
      1   0  58  55         0.0073875936
      1   0  41  38         0.0073875935
      1   0  40  38         0.0072522331
      1   0  57  55         0.0072522319
      1   0   6   5        -0.0072231053
      1   0  56  55         0.0064391649
      1   0  39  38         0.0064391647
      1   0  11   5         0.0057647556
      1   0  12  11         0.0056859921
      1   0   5   3         0.0055666241

    Largest TIjAb Amplitudes:
      3   1  30  38         0.0304947961
      3   1   7  55        -0.0304947932
      2   1   7  38         0.0304947849
      2   1  30  55         0.0304947820
      1   1   8   7         0.0279307103
      2   1  29  55         0.0273810966
      2   1   3  38         0.0273810932
      3   1   3  55        -0.0273810931
      3   1  29  38         0.0273810897
      1   1   5   5        -0.0272794670

    SCF energy       (wfn)                    = -289.467788514598340
    Reference energy (file100)                = -289.467788514598453

      * MP2 total energy                      = -289.566533599052320
      * CCSD total energy                     = -289.588931129127843
      * CCSD(T) total energy                     = -289.594190843406238
*** Psi4 exiting successfully. Buy a developer a beer!
