                               Psi4 1.2a1.dev939

  ==> Input File <==

--------------------------------------------------------------------------
# Any line starting with the # character is a comment line

memory 32000 mb

molecule molecule {
0 1
H          0.0000000000        0.0000000000        0.3687192096
H          0.0000000000        0.0000000000       -0.3687192096
}

set {
  reference rhf
  basis aug-cc-pv(D+d)z
  scf_type OUT_OF_CORE
  freeze_core true
}

energy('ccsd')
--------------------------------------------------------------------------

    Molecular point group: d2h

    Geometry (in Angstrom), charge = 0, multiplicity = 1:

       Center              X                  Y                   Z               Mass
    ------------   -----------------  -----------------  -----------------  -----------------
           H          0.000000000000     0.000000000000     0.368719209600     1.007825032070
           H          0.000000000000     0.000000000000    -0.368719209600     1.007825032070

  Charge       = 0
  Multiplicity = 1
  Basis Set: AUG-CC-PV(D+D)Z
    Blend: AUG-CC-PV(D+D)Z

    Orbital Energies (a.u.)
    -----------------------

    Doubly Occupied:

       1Ag    -0.593569

  @RHF Final Energy:    -1.12874312614034

   => Energetics <=

    Nuclear Repulsion Energy =              0.7175883366153755
    One-Electron Energy =                  -2.5055253811906821
    Two-Electron Energy =                   0.6591939184349617
    Total Energy =                         -1.1287431261403449
      * MP2 total energy                      =   -1.156001130165406
      * CCSD total energy                     =   -1.164501586940424
*** Psi4 exiting successfully. Buy a developer a beer!
