                               Psi4 1.2a1.dev939

  ==> Input File <==

--------------------------------------------------------------------------
# Any line starting with the # character is a comment line

memory 32000 mb

molecule molecule {
-1 1
Si        -0.0000000000        0.0000000000       -0.0771346726
H          1.3104499468        0.0000000000        0.7164334672
H         -0.6552249734        1.1348829444        0.7164334672
H         -0.6552249734       -1.1348829444        0.7164334672
}

set {
  reference rhf
  basis aug-cc-pv(D+d)z
  scf_type OUT_OF_CORE
  freeze_core true
}

energy('ccsd')
--------------------------------------------------------------------------

    Molecular point group: cs

    Geometry (in Angstrom), charge = -1, multiplicity = 1:

       Center              X                  Y                   Z               Mass
    ------------   -----------------  -----------------  -----------------  -----------------
          SI          0.000000000000     0.077396852356     0.000000000000    27.976926532460
           H         -0.655224973436    -0.716171287444     1.134882944338     1.007825032070
           H         -0.655224973436    -0.716171287444    -1.134882944338     1.007825032070
           H          1.310449946872    -0.716171287444     0.000000000000     1.007825032070

  Charge       = -1
  Multiplicity = 1
  Basis Set: AUG-CC-PV(D+D)Z
    Blend: AUG-CC-PV(D+D)Z

    Orbital Energies (a.u.)
    -----------------------

    Doubly Occupied:

       1Ap   -68.530514     2Ap    -5.875037     1App   -3.980017
       3Ap    -3.980017     4Ap    -3.978809     5Ap    -0.462139
       2App   -0.226536     6Ap    -0.226536     7Ap    -0.065563

  @RHF Final Energy:  -290.63785447188678

   => Energetics <=

    Nuclear Repulsion Energy =             15.2068775763315323
    One-Electron Energy =                -437.0391275798118045
    Two-Electron Energy =                 131.1943955315935284
    Total Energy =                       -290.6378544718867261
      * MP2 total energy                      = -290.768914137298225
      * CCSD total energy                     = -290.799823295032354
*** Psi4 exiting successfully. Buy a developer a beer!
