                               Psi4 1.2a1.dev939

  ==> Input File <==

--------------------------------------------------------------------------
# Any line starting with the # character is a comment line

memory 32000 mb

molecule molecule {
-1 1
Si        -0.0000000000        0.0000000000       -0.0771346726
H          1.3104499468        0.0000000000        0.7164334672
H         -0.6552249734        1.1348829444        0.7164334672
H         -0.6552249734       -1.1348829444        0.7164334672
}

set {
  reference rhf
  basis aug-cc-pv(Q+d)z
  scf_type OUT_OF_CORE
  freeze_core true
}

energy('ccsd')
--------------------------------------------------------------------------

    Molecular point group: cs

    Geometry (in Angstrom), charge = -1, multiplicity = 1:

       Center              X                  Y                   Z               Mass
    ------------   -----------------  -----------------  -----------------  -----------------
          SI          0.000000000000     0.077396852356     0.000000000000    27.976926532460
           H         -0.655224973436    -0.716171287444     1.134882944338     1.007825032070
           H         -0.655224973436    -0.716171287444    -1.134882944338     1.007825032070
           H          1.310449946872    -0.716171287444     0.000000000000     1.007825032070

  Charge       = -1
  Multiplicity = 1
  Basis Set: AUG-CC-PV(Q+D)Z
    Blend: AUG-CC-PV(Q+D)Z

    Orbital Energies (a.u.)
    -----------------------

    Doubly Occupied:

       1Ap   -68.523109     2Ap    -5.869618     1App   -3.974624
       3Ap    -3.974624     4Ap    -3.973816     5Ap    -0.461103
       2App   -0.227637     6Ap    -0.227637     7Ap    -0.065866

  @RHF Final Energy:  -290.65179228394095

   => Energetics <=

    Nuclear Repulsion Energy =             15.2068775763315323
    One-Electron Energy =                -437.1212638328052549
    Two-Electron Energy =                 131.2625939725327839
    Total Energy =                       -290.6517922839409493
      * MP2 total energy                      = -290.815926862946640
      * CCSD total energy                     = -290.841157239558981
*** Psi4 exiting successfully. Buy a developer a beer!
