                               Psi4 1.4a3.dev88

  ==> Input File <==

--------------------------------------------------------------------------
# Any line starting with the # character is a comment line
memory 250000 mb
molecule molecule{
0 1
S          0.0000000000        0.0000000000       -0.0547164095
H          0.0000000000       -0.9606862082        0.8701946977
H          0.0000000000        0.9606862082        0.8701946977
}

set {
  reference rhf
  basis aug-cc-pV(5+d)Z
  scf_type OUT_OF_CORE
  freeze_core true
}

energy('ccsd(t)')
--------------------------------------------------------------------------

    Molecular point group: c2v

    Geometry (in Angstrom), charge = 0, multiplicity = 1:

       Center              X                  Y                   Z               Mass
    ------------   -----------------  -----------------  -----------------  -----------------
         S            0.000000000000     0.000000000000    -0.054852077894    31.972071174400
         H            0.000000000000    -0.960686208200     0.870059029306     1.007825032230
         H           -0.000000000000     0.960686208200     0.870059029306     1.007825032230

  Charge       = 0
  Multiplicity = 1
  Basis Set: AUG-CC-PV(5+D)Z
    Blend: AUG-CC-PV(5+D)Z

    Orbital Energies [Eh]
    ---------------------

    Doubly Occupied:

       1A1   -91.964309     2A1    -8.966964     1B2    -6.648439
       3A1    -6.647791     1B1    -6.646829     4A1    -0.982219
       2B2    -0.591142     5A1    -0.502460     2B1    -0.385291

  @RHF Final Energy:  -398.72005687838464

   => Energetics <=

    Nuclear Repulsion Energy =             12.9735239479836562
    One-Electron Energy =                -576.7162803643830102
    Two-Electron Energy =                 165.0226995380147628
    Total Energy =                       -398.7200568783846393

  Dipole Moment: [D]
     X:     0.0000      Y:     0.0000      Z:     1.0681     Total:     1.0681

      * MP2 total energy                      = -398.934533466381993
      * CCSD total energy                     = -398.953753292411932
      * CCSD(T) total energy                  = -398.963686910020897
*** Psi4 exiting successfully. Buy a developer a beer!
