                               Psi4 1.4a3.dev88

  ==> Input File <==

--------------------------------------------------------------------------
# Any line starting with the # character is a comment line
memory 250000 mb
molecule molecule{
0 1
S          0.0000000000        0.0000000000       -0.0547164095
H          0.0000000000       -0.9606862082        0.8701946977
H          0.0000000000        0.9606862082        0.8701946977
}

set {
  reference rhf
  basis aug-cc-pV(d+d)Z
  scf_type OUT_OF_CORE
  freeze_core true
}

energy('ccsd(t)')
--------------------------------------------------------------------------

    Molecular point group: c2v

    Geometry (in Angstrom), charge = 0, multiplicity = 1:

       Center              X                  Y                   Z               Mass
    ------------   -----------------  -----------------  -----------------  -----------------
         S            0.000000000000     0.000000000000    -0.054852077894    31.972071174400
         H            0.000000000000    -0.960686208200     0.870059029306     1.007825032230
         H           -0.000000000000     0.960686208200     0.870059029306     1.007825032230

  Charge       = 0
  Multiplicity = 1
  Basis Set: AUG-CC-PV(D+D)Z
    Blend: AUG-CC-PV(D+D)Z

    Orbital Energies [Eh]
    ---------------------

    Doubly Occupied:

       1A1   -91.968939     2A1    -8.970983     1B2    -6.653139
       3A1    -6.652094     1B1    -6.649656     4A1    -0.984420
       2B2    -0.591786     5A1    -0.503055     2B1    -0.384453

  @RHF Final Energy:  -398.70224158485746

   => Energetics <=

    Nuclear Repulsion Energy =             12.9735239479836562
    One-Electron Energy =                -576.6344798555285251
    Two-Electron Energy =                 164.9587143226874275
    Total Energy =                       -398.7022415848574610

  Dipole Moment: [D]
     X:     0.0000      Y:     0.0000      Z:     1.1046     Total:     1.1046

      * MP2 total energy                      = -398.858749070342355
      * CCSD total energy                     = -398.882528038312330
      * CCSD(T) total energy                  = -398.887744357557551
*** Psi4 exiting successfully. Buy a developer a beer!
