                               Psi4 1.4a3.dev88

  ==> Input File <==

--------------------------------------------------------------------------
# Any line starting with the # character is a comment line
memory 250000 mb
molecule molecule{
0 1
Si         0.0000000000        0.0000000000        0.0702843410
H          0.0000000000        1.0886337008       -0.9792104977
H          0.0000000000       -1.0886337008       -0.9792104977
}

set {
  reference rhf
  basis aug-cc-pV(5+d)Z
  scf_type OUT_OF_CORE
  freeze_core true
}

energy('ccsd(t)')
--------------------------------------------------------------------------

    Molecular point group: c2v

    Geometry (in Angstrom), charge = 0, multiplicity = 1:

       Center              X                  Y                   Z               Mass
    ------------   -----------------  -----------------  -----------------  -----------------
         SI          -0.000000000000     0.000000000000     0.070531264037    27.976926534650
         H           -0.000000000000     1.088633700800    -0.978963574663     1.007825032230
         H            0.000000000000    -1.088633700800    -0.978963574663     1.007825032230

  Charge       = 0
  Multiplicity = 1
  Basis Set: AUG-CC-PV(5+D)Z
    Blend: AUG-CC-PV(5+D)Z

    Orbital Energies [Eh]
    ---------------------

    Doubly Occupied:

       1A1   -68.798804     2A1    -6.144092     1B1    -4.247090
       1B2    -4.245682     3A1    -4.245129     4A1    -0.675555
       2B2    -0.460361     5A1    -0.338474

  @RHF Final Energy:  -290.03533055010735

   => Energetics <=

    Nuclear Repulsion Energy =             10.0417271036439395
    One-Electron Energy =                -421.8437425100630662
    Two-Electron Energy =                 121.7666848563117696
    Total Energy =                       -290.0353305501073464

  Dipole Moment: [D]
     X:     0.0000      Y:     0.0000      Z:    -0.3012     Total:     0.3012

      * MP2 total energy                      = -290.155852896195483
      * CCSD total energy                     = -290.179257368808464
      * CCSD(T) total energy                  = -290.183584277962780
*** Psi4 exiting successfully. Buy a developer a beer!
