                               Psi4 1.4a3.dev88

  ==> Input File <==

--------------------------------------------------------------------------
# Any line starting with the # character is a comment line
memory 250000 mb
molecule molecule{
0 1
Si         0.0000000000        0.0000000000        0.0702843410
H          0.0000000000        1.0886337008       -0.9792104977
H          0.0000000000       -1.0886337008       -0.9792104977
}

set {
  reference rhf
  basis aug-cc-pV(d+d)Z
  scf_type OUT_OF_CORE
  freeze_core true
}

energy('ccsd(t)')
--------------------------------------------------------------------------

    Molecular point group: c2v

    Geometry (in Angstrom), charge = 0, multiplicity = 1:

       Center              X                  Y                   Z               Mass
    ------------   -----------------  -----------------  -----------------  -----------------
         SI          -0.000000000000     0.000000000000     0.070531264037    27.976926534650
         H           -0.000000000000     1.088633700800    -0.978963574663     1.007825032230
         H            0.000000000000    -1.088633700800    -0.978963574663     1.007825032230

  Charge       = 0
  Multiplicity = 1
  Basis Set: AUG-CC-PV(D+D)Z
    Blend: AUG-CC-PV(D+D)Z

    Orbital Energies [Eh]
    ---------------------

    Doubly Occupied:

       1A1   -68.805477     2A1    -6.149016     1B1    -4.252932
       1B2    -4.250492     3A1    -4.249423     4A1    -0.676732
       2B2    -0.459160     5A1    -0.337943

  @RHF Final Energy:  -290.02270504737828

   => Energetics <=

    Nuclear Repulsion Energy =             10.0417271036439395
    One-Electron Energy =                -421.7665157788293300
    Two-Electron Energy =                 121.7020836278070988
    Total Energy =                       -290.0227050473782811

  Dipole Moment: [D]
     X:     0.0000      Y:     0.0000      Z:    -0.3211     Total:     0.3211

      * MP2 total energy                      = -290.115646367665590
      * CCSD total energy                     = -290.145054343402649
      * CCSD(T) total energy                  = -290.147808765004754
*** Psi4 exiting successfully. Buy a developer a beer!
