                               Psi4 1.4a3.dev88

  ==> Input File <==

--------------------------------------------------------------------------
# Any line starting with the # character is a comment line
memory 250000 mb
molecule molecule{
1 2
C          0.0000000000        0.0000000000        0.0000000000
}

set {
  reference uhf
  basis aug-cc-pV(d+d)Z
  scf_type OUT_OF_CORE
  freeze_core true
}

energy('ccsd(t)')
--------------------------------------------------------------------------

    Molecular point group: d2h
    Geometry (in Angstrom), charge = 1, multiplicity = 2:

       Center              X                  Y                   Z               Mass
    ------------   -----------------  -----------------  -----------------  -----------------
         C            0.000000000000     0.000000000000     0.000000000000    12.000000000000

  Charge       = 1
  Multiplicity = 2
  Basis Set: AUG-CC-PV(D+D)Z
    Blend: AUG-CC-PV(D+D)Z

    Orbital Energies [Eh]
    ---------------------

    Alpha Occupied:

       1Ag   -11.924595     2Ag    -1.224757     1B1u   -0.912787

    Alpha Virtual:

       1B2u   -0.363860     1B3u   -0.363860     3Ag    -0.113969
       2B1u   -0.077138     2B2u   -0.067421     2B3u   -0.067421
       1B2g    0.156261     1B3g    0.156261     4Ag     0.156468
       1B1g    0.157718     5Ag     0.157718     3B1u    0.376876
       3B2u    0.435580     3B3u    0.435580     6Ag     0.596241
       7Ag     1.216632     2B2g    1.221750     2B3g    1.221750
       8Ag     1.242519     2B1g    1.242519

    Beta Occupied:

       1Ag   -11.894308     2Ag    -1.088796

    Beta Virtual:

       1B2u   -0.340871     1B3u   -0.340871     1B1u   -0.275041
       3Ag    -0.107886     2B2u   -0.064618     2B3u   -0.064618
       2B1u   -0.052084     4Ag     0.158354     1B1g    0.158354
       1B2g    0.175461     1B3g    0.175461     5Ag     0.181399
       3B2u    0.448544     3B3u    0.448544     3B1u    0.494108
       6Ag     0.626972     7Ag     1.249730     2B1g    1.249730
       2B2g    1.297117     2B3g    1.297117     8Ag     1.314502

    Final Occupation by Irrep:
             Ag   B1g   B2g   B3g    Au   B1u   B2u   B3u
    DOCC [     2,    0,    0,    0,    0,    0,    0,    0 ]
    SOCC [     0,    0,    0,    0,    0,    1,    0,    0 ]

  @UHF Final Energy:   -37.29025312887030

   => Energetics <=

    Nuclear Repulsion Energy =              0.0000000000000000
    One-Electron Energy =                 -47.5352639920997717
    Two-Electron Energy =                  10.2450108632294636
    Total Energy =                        -37.2902531288703045

  UHF NO Occupations:
  HONO-2 :    1 Ag 1.9999995
  HONO-1 :    2 Ag 1.9968901
  HONO-0 :    1B1u 1.0000000
  LUNO+0 :    3 Ag 0.0031099
  LUNO+1 :    4 Ag 0.0000005
  LUNO+2 :    5 Ag 0.0000000
  LUNO+3 :    6 Ag 0.0000000

Computation Completed

Properties will be evaluated at   0.000000,   0.000000,   0.000000 [a0]

Properties computed using the SCF density matrix

  Nuclear Dipole Moment: [e a0]
     X:     0.0000      Y:     0.0000      Z:     0.0000

  Electronic Dipole Moment: [e a0]
     X:     0.0000      Y:     0.0000      Z:     0.0000

  Dipole Moment: [e a0]
     X:     0.0000      Y:     0.0000      Z:     0.0000     Total:     0.0000

  Dipole Moment: [D]
     X:     0.0000      Y:     0.0000      Z:     0.0000     Total:     0.0000

*** tstop() called on n412-039.vsc4.prov at Tue Jan 26 18:13:08 2021
Module time:
	user time   =       5.26 seconds =       0.09 minutes
	system time =       0.19 seconds =       0.00 minutes
	total time  =          0 seconds =       0.00 minutes
Total time:
	user time   =       5.26 seconds =       0.09 minutes
	system time =       0.19 seconds =       0.00 minutes
	total time  =          0 seconds =       0.00 minutes

*** tstart() called on n412-039.vsc4.prov
*** at Tue Jan 26 18:13:08 2021

	Wfn Parameters:
	--------------------
	Wavefunction         = CCSD_T
	Number of irreps     = 8
	Number of MOs        = 23
	Number of active MOs = 22
	AO-Basis             = NONE
	Semicanonical        = false
	Reference            = UHF
	Print Level          = 1

	IRREP	# MOs	# FZDC	# DOCC	# SOCC	# VIRT	# FZVR
	-----	-----	------	------	------	------	------
	 Ag	   8	    1	    1	    0	    6	    0
	 B1g	   2	    0	    0	    0	    2	    0
	 B2g	   2	    0	    0	    0	    2	    0
	 B3g	   2	    0	    0	    0	    2	    0
	 Au	   0	    0	    0	    0	    0	    0
	 B1u	   3	    0	    0	    1	    2	    0
	 B2u	   3	    0	    0	    0	    3	    0
	 B3u	   3	    0	    0	    0	    3	    0
	Transforming integrals...
	IWL integrals will be deleted.
	(OO|OO)...
	Presorting SO-basis two-electron integrals.
	Sorting File: SO Ints (nn|nn) nbuckets = 1
	Constructing frozen core operators
	Starting AA/AB first half-transformation.
	Sorting AA/AB half-transformed integrals.
	Starting BB first half-transformation.
	Sorting BB half-transformed integrals.
	First half integral transformation complete.
	Starting AA second half-transformation.
	Starting AB second half-transformation.
	Starting BB second half-transformation.
	Two-electron integral transformation complete.
	(OO|OV)...
	Starting AA second half-transformation.
	Starting AB second half-transformation.
	Starting BB second half-transformation.
	Two-electron integral transformation complete.
	(OO|VV)...
	Starting AA second half-transformation.
	Starting AB second half-transformation.
	Starting BB second half-transformation.
	Two-electron integral transformation complete.
	(OV|OO)...
	Starting AA/AB first half-transformation.
	Sorting AA/AB half-transformed integrals.
	Starting BB first half-transformation.
	Sorting BB half-transformed integrals.
	First half integral transformation complete.
	Starting AA second half-transformation.
	Starting AB second half-transformation.
	Starting BB second half-transformation.
	Two-electron integral transformation complete.
	(OV|OV)...
	Starting AA second half-transformation.
	Starting AB second half-transformation.
	Starting BB second half-transformation.
	Two-electron integral transformation complete.
	(OV|VV)...
	Starting AA second half-transformation.
	Starting AB second half-transformation.
	Starting BB second half-transformation.
	Two-electron integral transformation complete.
	(VV|OO)...
	Starting AA/AB first half-transformation.
	Sorting AA/AB half-transformed integrals.
	Starting BB first half-transformation.
	Sorting BB half-transformed integrals.
	First half integral transformation complete.
	Starting AA second half-transformation.
	Starting AB second half-transformation.
	Starting BB second half-transformation.
	Two-electron integral transformation complete.
	(VV|OV)...
	Starting AA second half-transformation.
	Starting AB second half-transformation.
	Starting BB second half-transformation.
	Two-electron integral transformation complete.
	(VV|VV)...
	Starting AA second half-transformation.
	Starting AB second half-transformation.
	Starting BB second half-transformation.
	Two-electron integral transformation complete.
	Frozen core energy     =    -32.35942039654337

	Size of irrep 0 of <AB|CD> integrals:      0.001 (MW) /      0.005 (MB)
	Size of irrep 1 of <AB|CD> integrals:      0.001 (MW) /      0.005 (MB)
	Size of irrep 2 of <AB|CD> integrals:      0.000 (MW) /      0.004 (MB)
	Size of irrep 3 of <AB|CD> integrals:      0.000 (MW) /      0.004 (MB)
	Size of irrep 4 of <AB|CD> integrals:      0.000 (MW) /      0.002 (MB)
	Size of irrep 5 of <AB|CD> integrals:      0.001 (MW) /      0.005 (MB)
	Size of irrep 6 of <AB|CD> integrals:      0.001 (MW) /      0.006 (MB)
	Size of irrep 7 of <AB|CD> integrals:      0.001 (MW) /      0.006 (MB)
	Total:                                     0.005 (MW) /      0.037 (MB)

	Size of irrep 0 of <ab|cd> integrals:      0.001 (MW) /      0.006 (MB)
	Size of irrep 1 of <ab|cd> integrals:      0.001 (MW) /      0.005 (MB)
	Size of irrep 2 of <ab|cd> integrals:      0.001 (MW) /      0.005 (MB)
	Size of irrep 3 of <ab|cd> integrals:      0.001 (MW) /      0.005 (MB)
	Size of irrep 4 of <ab|cd> integrals:      0.000 (MW) /      0.003 (MB)
	Size of irrep 5 of <ab|cd> integrals:      0.001 (MW) /      0.007 (MB)
	Size of irrep 6 of <ab|cd> integrals:      0.001 (MW) /      0.007 (MB)
	Size of irrep 7 of <ab|cd> integrals:      0.001 (MW) /      0.007 (MB)
	Total:                                     0.006 (MW) /      0.045 (MB)

	Size of irrep 0 of <Ab|Cd> integrals:      0.005 (MW) /      0.041 (MB)
	Size of irrep 1 of <Ab|Cd> integrals:      0.003 (MW) /      0.020 (MB)
	Size of irrep 2 of <Ab|Cd> integrals:      0.002 (MW) /      0.018 (MB)
	Size of irrep 3 of <Ab|Cd> integrals:      0.002 (MW) /      0.018 (MB)
	Size of irrep 4 of <Ab|Cd> integrals:      0.001 (MW) /      0.009 (MB)
	Size of irrep 5 of <Ab|Cd> integrals:      0.003 (MW) /      0.023 (MB)
	Size of irrep 6 of <Ab|Cd> integrals:      0.003 (MW) /      0.027 (MB)
	Size of irrep 7 of <Ab|Cd> integrals:      0.003 (MW) /      0.027 (MB)
	Total:                                     0.023 (MW) /      0.183 (MB)

	Size of irrep 0 of <IA|BC> integrals:      0.001 (MW) /      0.004 (MB)
	Size of irrep 1 of <IA|BC> integrals:      0.000 (MW) /      0.001 (MB)
	Size of irrep 2 of <IA|BC> integrals:      0.000 (MW) /      0.002 (MB)
	Size of irrep 3 of <IA|BC> integrals:      0.000 (MW) /      0.002 (MB)
	Size of irrep 4 of <IA|BC> integrals:      0.000 (MW) /      0.001 (MB)
	Size of irrep 5 of <IA|BC> integrals:      0.000 (MW) /      0.003 (MB)
	Size of irrep 6 of <IA|BC> integrals:      0.000 (MW) /      0.002 (MB)
	Size of irrep 7 of <IA|BC> integrals:      0.000 (MW) /      0.002 (MB)
	Total:                                     0.002 (MW) /      0.017 (MB)

	Size of irrep 0 of <ia|bc> integrals:      0.000 (MW) /      0.004 (MB)
	Size of irrep 1 of <ia|bc> integrals:      0.000 (MW) /      0.001 (MB)
	Size of irrep 2 of <ia|bc> integrals:      0.000 (MW) /      0.001 (MB)
	Size of irrep 3 of <ia|bc> integrals:      0.000 (MW) /      0.001 (MB)
	Size of irrep 4 of <ia|bc> integrals:      0.000 (MW) /      0.000 (MB)
	Size of irrep 5 of <ia|bc> integrals:      0.000 (MW) /      0.001 (MB)
	Size of irrep 6 of <ia|bc> integrals:      0.000 (MW) /      0.001 (MB)
	Size of irrep 7 of <ia|bc> integrals:      0.000 (MW) /      0.001 (MB)
	Total:                                     0.001 (MW) /      0.010 (MB)

	Size of irrep 0 of <Ia|Bc> integrals:      0.001 (MW) /      0.005 (MB)
	Size of irrep 1 of <Ia|Bc> integrals:      0.000 (MW) /      0.001 (MB)
	Size of irrep 2 of <Ia|Bc> integrals:      0.000 (MW) /      0.002 (MB)
	Size of irrep 3 of <Ia|Bc> integrals:      0.000 (MW) /      0.002 (MB)
	Size of irrep 4 of <Ia|Bc> integrals:      0.000 (MW) /      0.001 (MB)
	Size of irrep 5 of <Ia|Bc> integrals:      0.000 (MW) /      0.004 (MB)
	Size of irrep 6 of <Ia|Bc> integrals:      0.000 (MW) /      0.002 (MB)
	Size of irrep 7 of <Ia|Bc> integrals:      0.000 (MW) /      0.002 (MB)
	Total:                                     0.002 (MW) /      0.019 (MB)

	Size of irrep 0 of <iA|bC> integrals:      0.000 (MW) /      0.003 (MB)
	Size of irrep 1 of <iA|bC> integrals:      0.000 (MW) /      0.001 (MB)
	Size of irrep 2 of <iA|bC> integrals:      0.000 (MW) /      0.001 (MB)
	Size of irrep 3 of <iA|bC> integrals:      0.000 (MW) /      0.001 (MB)
	Size of irrep 4 of <iA|bC> integrals:      0.000 (MW) /      0.000 (MB)
	Size of irrep 5 of <iA|bC> integrals:      0.000 (MW) /      0.001 (MB)
	Size of irrep 6 of <iA|bC> integrals:      0.000 (MW) /      0.001 (MB)
	Size of irrep 7 of <iA|bC> integrals:      0.000 (MW) /      0.001 (MB)
	Total:                                     0.001 (MW) /      0.009 (MB)

	Size of irrep 0 of tIjAb amplitudes:       0.000 (MW) /      0.001 (MB)
	Size of irrep 1 of tIjAb amplitudes:       0.000 (MW) /      0.000 (MB)
	Size of irrep 2 of tIjAb amplitudes:       0.000 (MW) /      0.000 (MB)
	Size of irrep 3 of tIjAb amplitudes:       0.000 (MW) /      0.000 (MB)
	Size of irrep 4 of tIjAb amplitudes:       0.000 (MW) /      0.000 (MB)
	Size of irrep 5 of tIjAb amplitudes:       0.000 (MW) /      0.000 (MB)
	Size of irrep 6 of tIjAb amplitudes:       0.000 (MW) /      0.000 (MB)
	Size of irrep 7 of tIjAb amplitudes:       0.000 (MW) /      0.000 (MB)
	Total:                                     0.000 (MW) /      0.001 (MB)

	Nuclear Rep. energy          =      0.00000000000000
	SCF energy                   =    -37.29025312887030
	One-electron energy          =     -6.63532633280088
	Two-electron (AA) energy     =      0.48575341982676
	Two-electron (BB) energy     =      0.00000000000000
	Two-electron (AB) energy     =      1.21874018064719
	Two-electron energy          =      1.70449360047395
	Reference energy             =    -37.29025312887031

*** tstop() called on n412-039.vsc4.prov at Tue Jan 26 18:13:08 2021
Module time:
	user time   =       0.01 seconds =       0.00 minutes
	system time =       0.08 seconds =       0.00 minutes
	total time  =          0 seconds =       0.00 minutes
Total time:
	user time   =       5.27 seconds =       0.09 minutes
	system time =       0.27 seconds =       0.00 minutes
	total time  =          0 seconds =       0.00 minutes
            **************************
            *                        *
            *        CCENERGY        *
            *                        *
            **************************

    Nuclear Rep. energy (wfn)     =    0.000000000000000
    SCF energy          (wfn)     =  -37.290253128870305
    Reference energy    (file100) =  -37.290253128870312

    Input parameters:
    -----------------
    Wave function   =     CCSD_T
    Reference wfn   =     UHF
    Brueckner       =     No
    Memory (Mbytes) =     250000.0
    Maxiter         =     50
    R_Convergence   =     1.0e-07
    E_Convergence   =     1.0e-06
    Restart         =     Yes
    DIIS            =     Yes
    AO Basis        =     NONE
    ABCD            =     NEW
    Cache Level     =     2
    Cache Type      =     LRU
    Print Level     =     1
    Num. of threads =     48
    # Amps to Print =     10
    Print MP2 Amps? =     No
    Analyze T2 Amps =     No
    Print Pair Ener =     No
    Local CC        =     No
    SCS-MP2         =     False
    SCSN-MP2        =     False
    SCS-CCSD        =     False

MP2 correlation energy -0.0416548161938705
                Solving CC Amplitude Equations
                ------------------------------
  Iter             Energy              RMS        T1Diag      D1Diag    New D1Diag    D2Diag
  ----     ---------------------    ---------   ----------  ----------  ----------   --------
     0        -0.041654816193871    0.000e+00    0.000000    0.000000    0.000000    0.000000
     1        -0.056182715573614    5.738e-02    0.005451    0.000000    0.000000    0.000000
     2        -0.066899065203062    2.787e-02    0.012021    0.000000    0.000000    0.000000
     3        -0.067158330448609    4.156e-03    0.012950    0.000000    0.000000    0.000000
     4        -0.067301513626065    6.701e-04    0.012901    0.000000    0.000000    0.000000
     5        -0.067236391568743    1.456e-04    0.012846    0.000000    0.000000    0.000000
     6        -0.067260272295577    5.358e-05    0.012857    0.000000    0.000000    0.000000
     7        -0.067257159474184    9.904e-06    0.012855    0.000000    0.000000    0.000000
     8        -0.067256870838861    1.071e-06    0.012855    0.000000    0.000000    0.000000
     9        -0.067256993417643    3.834e-07    0.012855    0.000000    0.000000    0.000000
    10        -0.067256992534345    5.595e-08    0.012855    0.000000    0.000000    0.000000

    Iterations converged.

    Largest TIA Amplitudes:
              0   1        -0.0123723477
              0   4         0.0115966164
              1  13        -0.0044924281
              0   3         0.0039517028
              1  12        -0.0031446538
              0   0         0.0023303176

    Largest Tia Amplitudes:
              0   3         0.0087050889
              0   0         0.0084318373
              0   5        -0.0029124309
              0   2        -0.0013086059

    Largest TIJAB Amplitudes:
      1   0  13   3        -0.0159385224
      1   0  14  11         0.0130268698
      1   0  17   9         0.0130268698
      1   0  14  10         0.0116321872
      1   0  17   8         0.0116321872
      1   0  13   0        -0.0095437902
      1   0  12   3        -0.0071276749
      1   0  12   0        -0.0046900245
      1   0  16  11         0.0039975164
      1   0  19   9         0.0039975164

    Largest TIjAb Amplitudes:
      0   0  14  15        -0.1337364056
      0   0  17  18        -0.1337364056
      1   0   4  12         0.0396647801
      1   0   9  18        -0.0360242571
      1   0  11  15        -0.0360242571
      1   0   1  12        -0.0341836001
      0   0  14  17        -0.0323250469
      0   0  17  20        -0.0323250469
      0   0  14  16        -0.0322673036
      0   0  17  19        -0.0322673036

    SCF energy       (wfn)                    =  -37.290253128870305
    Reference energy (file100)                =  -37.290253128870312

    Opposite-spin MP2 correlation energy      =   -0.039233754930502
    Same-spin MP2 correlation energy          =   -0.002421061263368
    Singles MP2 correlation energy            =   -0.000000000000000
    MP2 correlation energy                    =   -0.041654816193871
      * MP2 total energy                      =  -37.331907945064181

    Opposite-spin CCSD correlation energy     =   -0.064576760149314
    Same-spin CCSD correlation energy         =   -0.002680232385031
    Singles CCSD correlation energy           =   -0.000000000000000
    CCSD correlation energy                   =   -0.067256992534345
      * CCSD total energy                     =  -37.357510121404658

            **************************
            *                        *
            *        CCTRIPLES       *
            *                        *
            **************************

    Wave function   =    CCSD_T
    Reference wfn   =      UHF

    Nuclear Rep. energy (wfn)                =    0.000000000000000
    SCF energy          (wfn)                =  -37.290253128870305
    Reference energy    (file100)            =  -37.290253128870312
    CCSD energy         (file100)            =   -0.067256992534345
    Total CCSD energy   (file100)            =  -37.357510121404658

      * CCSD(T) total energy                     =  -37.358196545136693
*** Psi4 exiting successfully. Buy a developer a beer!
