                               Psi4 1.2a1.dev938

  ==> Input File <==

--------------------------------------------------------------------------
# Any line starting with the # character is a comment line
memory 250000 mb
molecule molecule{
-1 2
O          0.0000000000        0.0000000000        0.6938800435
O          0.0000000000        0.0000000000       -0.6938800435
}

set {
  reference uhf
  basis aug-cc-pv(q+d)z
  scf_type OUT_OF_CORE
  freeze_core true
}

energy('ccsd')
--------------------------------------------------------------------------

    Molecular point group: d2h

    Geometry (in Angstrom), charge = -1, multiplicity = 2:

       Center              X                  Y                   Z               Mass
    ------------   -----------------  -----------------  -----------------  -----------------
           O          0.000000000000     0.000000000000     0.693880043500    15.994914619560
           O          0.000000000000     0.000000000000    -0.693880043500    15.994914619560

  Charge       = -1
  Multiplicity = 2
  Basis Set: AUG-CC-PV(Q+D)Z
    Blend: AUG-CC-PV(Q+D)Z

    Orbital Energies (a.u.)
    -----------------------

    Alpha Occupied:

       1Ag   -20.330495     1B1u  -20.330159     2Ag    -1.164822
       2B1u   -0.830283     1B3u   -0.387552     1B2u   -0.331947
       3Ag    -0.304662     1B2g   -0.200179     1B3g   -0.137809

    Alpha Virtual:

       3B1u    0.233325     4Ag     0.306690     2B3u    0.321990
       2B2u    0.326023     2B2g    0.335945     2B3g    0.339091
       5Ag     0.385039     4B1u    0.463170     5B1u    0.646037
       6Ag     0.688117     1B1g    0.688177     7Ag     0.741657
       3B2g    0.776384     3B3g    0.784193     3B3u    0.811639
       3B2u    0.817949     6B1u    0.819036     1Au     0.820858
       7B1u    0.825278     4B3u    0.968683     4B2u    0.989018
       8Ag     1.061307     8B1u    1.074438     4B2g    1.159543
       4B3g    1.174845     9Ag     1.337493     5B3u    1.532626
       5B2u    1.532627     2B1g    1.634170    10Ag     1.634364
       6B3u    1.706032     6B2u    1.727071    11Ag     1.769189
       9B1u    1.772923     5B2g    1.787338     5B3g    1.787371
       2Au     1.809936    10B1u    1.811864     6B2g    1.818686
       3B1g    1.822010    12Ag     1.823746     6B3g    1.830966
      11B1u    2.051557     7B3u    2.078888     7B2u    2.092125
      12B1u    2.237196     3Au     2.237560    13B1u    2.332417
       7B2g    2.531305     7B3g    2.557958    13Ag     2.558474
       8B3u    3.040523     8B2u    3.080405    14Ag     3.099018
       8B2g    3.473589     8B3g    3.508730     9B3u    3.768525
       9B2u    3.768529    15Ag     3.824151     4B1g    3.824151
      16Ag     3.963216     5B1g    3.963407    10B3u    4.023440
      10B2u    4.047264    17Ag     4.089125    14B1u    4.126602
       4Au     4.126602    15B1u    4.280872    11B3u    4.318339
      11B2u    4.318418     9B2g    4.400017    12B3u    4.410008
       9B3g    4.419281     5Au     4.423937    16B1u    4.425146
      12B2u    4.432406    10B2g    4.446700    10B3g    4.447738
      18Ag     4.486946     6B1g    4.547832    19Ag     4.550517
      17B1u    4.559606    11B2g    4.677732    11B3g    4.677737
       7B1g    4.710514    20Ag     4.710972    18B1u    4.799362
       6Au     4.807504    19B1u    4.827602    21Ag     4.830890
      12B2g    5.134444    12B3g    5.168760    20B1u    5.291572
       7Au     5.754751    21B1u    5.755365    13B3u    5.783610
      13B2u    5.812678    22Ag     6.073199    13B2g    6.483540
      13B3g    6.512366    22B1u    7.494116    23Ag    10.566361
      14B3u   10.595930    14B2u   10.627654    15B3u   10.743385
      15B2u   10.784904     8B1g   10.877011    24Ag    10.877951
      16B3u   10.890363    16B2u   10.890480     9B1g   10.895516
      25Ag    10.895840    23B1u   10.996732     8Au    10.996732
      14B2g   11.167814    14B3g   11.167821    15B2g   11.349531
      15B3g   11.396122    24B1u   11.497408     9Au    11.499801
      26Ag    11.554787    25B1u   11.627965    16B2g   11.856359
      16B3g   11.888348    17B3u   12.122042    17B2u   12.122065
      10B1g   12.145999    27Ag    12.146805    26B1u   12.187581
      17B2g   12.230271    17B3g   12.230291    18B3u   12.482869
      18B2u   12.518126    27B1u   12.547621    10Au    12.549959
      28B1u   12.618608    28Ag    12.962292    11B1g   12.963695
      11Au    13.108724    29B1u   13.108932    18B2g   13.125079
      29Ag    13.150677    18B3g   13.158574    19B3u   13.267945
      19B2u   13.305739    19B2g   13.982267    19B3g   14.017113
      30Ag    14.343122    30B1u   15.763468    31Ag    41.585022
      31B1u   43.929806

    Beta Occupied:

       1Ag   -20.302509     1B1u  -20.302029     2Ag    -1.083234
       2B1u   -0.717400     1B2u   -0.303316     3Ag    -0.279121
       1B3u   -0.129669     1B3g   -0.101230

    Beta Virtual:

       3B1u    0.233554     4Ag     0.307485     1B2g    0.313129
       2B2u    0.326373     2B3u    0.333597     2B3g    0.340064
       5Ag     0.380845     2B2g    0.431560     4B1u    0.469493
       5B1u    0.670220     6Ag     0.682807     1B1g    0.683082
       7Ag     0.739301     3B3g    0.785931     3B2g    0.805737
       3B3u    0.814410     3B2u    0.815037     6B1u    0.821838
       1Au     0.822201     7B1u    0.833077     4B2u    0.995322
       4B3u    1.030667     8Ag     1.071639     8B1u    1.083414
       4B3g    1.179377     4B2g    1.206557     9Ag     1.335856
       5B2u    1.530561     5B3u    1.530562     2B1g    1.636677
      10Ag     1.636909     6B2u    1.726837     6B3u    1.738301
      11Ag     1.775704     9B1u    1.786213     5B2g    1.789381
       5B3g    1.789381     2Au     1.828352    10B1u    1.828560
       6B2g    1.828886     6B3g    1.829467     3B1g    1.839402
      12Ag     1.839447    11B1u    2.054426     7B3u    2.091920
       7B2u    2.092182     3Au     2.254552    12B1u    2.254793
      13B1u    2.340207     7B3g    2.565000    13Ag     2.578296
       7B2g    2.583805     8B2u    3.095209    14Ag     3.112420
       8B3u    3.128476     8B3g    3.518691     8B2g    3.533635
       9B2u    3.769295     9B3u    3.769296     4B1g    3.827945
      15Ag     3.827945    16Ag     3.968895     5B1g    3.968948
      10B3u    4.045150    10B2u    4.050884    17Ag     4.102086
       4Au     4.132286    14B1u    4.132286    15B1u    4.294782
      11B3u    4.338742    11B2u    4.338744     9B2g    4.414015
       9B3g    4.422228    12B3u    4.428950    12B2u    4.433431
       5Au     4.439762    16B1u    4.439865    10B2g    4.464975
      10B3g    4.465011    18Ag     4.494963     6B1g    4.567383
      19Ag     4.567864    17B1u    4.577928    11B3g    4.684115
      11B2g    4.684115    20Ag     4.755382     7B1g    4.755927
      18B1u    4.837345     6Au     4.856727    19B1u    4.857036
      21Ag     4.860504    12B3g    5.178213    12B2g    5.185098
      20B1u    5.299868     7Au     5.765937    21B1u    5.766098
      13B3u    5.815564    13B2u    5.818740    22Ag     6.084943
      13B2g    6.512213    13B3g    6.517846    22B1u    7.519586
      23Ag    10.577753    14B3u   10.621353    14B2u   10.633750
      15B2u   10.797863    15B3u   10.802151     8B1g   10.892560
      24Ag    10.892959    16B3u   10.906115    16B2u   10.906129
       9B1g   10.913953    25Ag    10.913971    23B1u   11.018892
       8Au    11.018892    14B2g   11.184301    14B3g   11.184302
      15B2g   11.410525    15B3g   11.410782    24B1u   11.512260
       9Au    11.513064    26Ag    11.574611    25B1u   11.638103
      16B2g   11.875349    16B3g   11.892829    17B3u   12.161240
      17B2u   12.161240    10B1g   12.173400    27Ag    12.173501
      26B1u   12.203268    17B2g   12.268651    17B3g   12.268652
      18B3u   12.515527    18B2u   12.526696    27B1u   12.575565
      10Au    12.575910    28B1u   12.628901    11B1g   13.011708
      28Ag    13.011728    11Au    13.155868    29B1u   13.155896
      18B2g   13.160057    18B3g   13.166270    29Ag    13.167919
      19B3u   13.309830    19B2u   13.315368    19B2g   14.017358
      19B3g   14.025884    30Ag    14.352982    30B1u   15.775555
      31Ag    41.602536    31B1u   43.947057

    Final Occupation by Irrep:
             Ag   B1g   B2g   B3g    Au   B1u   B2u   B3u
    DOCC [     3,    0,    0,    1,    0,    2,    1,    1 ]
    SOCC [     0,    0,    1,    0,    0,    0,    0,    0 ]

  Energy converged.

  @UHF Final Energy:  -149.64966483243452

   => Energetics <=

    Nuclear Repulsion Energy =             24.4043200744971394
    One-Electron Energy =                -260.8715529956133423
    Two-Electron Energy =                  86.8175680886816821
    Total Energy =                       -149.6496648324344960

  UHF NO Occupations:
  HONO-2 :    2B1u 1.9985781
  HONO-1 :    1B3u 1.9783607
  HONO-0 :    1B2g 1.0000000
  LUNO+0 :    2B3u 0.0216393
  LUNO+1 :    3B1u 0.0014219
  LUNO+2 :    4 Ag 0.0008446
  LUNO+3 :    2B3g 0.0006582

Properties will be evaluated at   0.000000,   0.000000,   0.000000 Bohr

Properties computed using the SCF density matrix

  Nuclear Dipole Moment: (a.u.)
     X:     0.0000      Y:     0.0000      Z:     0.0000

  Electronic Dipole Moment: (a.u.)
     X:     0.0000      Y:     0.0000      Z:     0.0000

  Dipole Moment: (a.u.)
     X:     0.0000      Y:     0.0000      Z:     0.0000     Total:     0.0000

  Dipole Moment: (Debye)
     X:     0.0000      Y:     0.0000      Z:     0.0000     Total:     0.0000

*** tstop() called on cqc05 at Thu Aug 20 21:28:57 2020
Module time:
	user time   =       9.06 seconds =       0.15 minutes
	system time =       0.45 seconds =       0.01 minutes
	total time  =          8 seconds =       0.13 minutes
Total time:
	user time   =       9.06 seconds =       0.15 minutes
	system time =       0.45 seconds =       0.01 minutes
	total time  =          8 seconds =       0.13 minutes

*** tstart() called on cqc05
*** at Thu Aug 20 21:28:57 2020

	Wfn Parameters:
	--------------------
	Wavefunction         = CCSD
	Number of irreps     = 8
	Number of MOs        = 160
	Number of active MOs = 158
	AO-Basis             = NONE
	Semicanonical        = false
	Reference            = UHF
	Print Level          = 1

	IRREP	# MOs	# FZDC	# DOCC	# SOCC	# VIRT	# FZVR
	-----	-----	------	------	------	------	------
	 Ag	   31	    1	    2	    0	    28	    0
	 B1g	   11	    0	    0	    0	    11	    0
	 B2g	   19	    0	    0	    1	    18	    0
	 B3g	   19	    0	    1	    0	    18	    0
	 Au	   11	    0	    0	    0	    11	    0
	 B1u	   31	    1	    1	    0	    29	    0
	 B2u	   19	    0	    1	    0	    18	    0
	 B3u	   19	    0	    1	    0	    18	    0
	Transforming integrals...
	IWL integrals will be deleted.
	(OO|OO)...
	Presorting SO-basis two-electron integrals.
	Sorting File: SO Ints (nn|nn) nbuckets = 1
	Transforming the one-electron integrals and constructing Fock matrices
	Starting AA/AB first half-transformation.
	Sorting AA/AB half-transformed integrals.
	Starting BB first half-transformation.
	Sorting BB half-transformed integrals.
	First half integral transformation complete.
	Starting AA second half-transformation.
	Starting AB second half-transformation.
	Starting BB second half-transformation.
	Two-electron integral transformation complete.
	(OO|OV)...
	Starting AA second half-transformation.
	Starting AB second half-transformation.
	Starting BB second half-transformation.
	Two-electron integral transformation complete.
	(OO|VV)...
	Starting AA second half-transformation.
	Starting AB second half-transformation.
	Starting BB second half-transformation.
	Two-electron integral transformation complete.
	(OV|OO)...
	Starting AA/AB first half-transformation.
	Sorting AA/AB half-transformed integrals.
	Starting BB first half-transformation.
	Sorting BB half-transformed integrals.
	First half integral transformation complete.
	Starting AA second half-transformation.
	Starting AB second half-transformation.
	Starting BB second half-transformation.
	Two-electron integral transformation complete.
	(OV|OV)...
	Starting AA second half-transformation.
	Starting AB second half-transformation.
	Starting BB second half-transformation.
	Two-electron integral transformation complete.
	(OV|VV)...
	Starting AA second half-transformation.
	Starting AB second half-transformation.
	Starting BB second half-transformation.
	Two-electron integral transformation complete.
	(VV|OO)...
	Starting AA/AB first half-transformation.
	Sorting AA/AB half-transformed integrals.
	Starting BB first half-transformation.
	Sorting BB half-transformed integrals.
	First half integral transformation complete.
	Starting AA second half-transformation.
	Starting AB second half-transformation.
	Starting BB second half-transformation.
	Two-electron integral transformation complete.
	(VV|OV)...
	Starting AA second half-transformation.
	Starting AB second half-transformation.
	Starting BB second half-transformation.
	Two-electron integral transformation complete.
	(VV|VV)...
	Starting AA second half-transformation.
	Starting AB second half-transformation.
	Starting BB second half-transformation.
	Two-electron integral transformation complete.
	Frozen core energy     =   -128.89152135500782

	Size of irrep 0 of <AB|CD> integrals:      2.268 (MW) /     18.144 (MB)
	Size of irrep 1 of <AB|CD> integrals:      1.626 (MW) /     13.005 (MB)
	Size of irrep 2 of <AB|CD> integrals:      2.022 (MW) /     16.177 (MB)
	Size of irrep 3 of <AB|CD> integrals:      2.022 (MW) /     16.177 (MB)
	Size of irrep 4 of <AB|CD> integrals:      1.626 (MW) /     13.005 (MB)
	Size of irrep 5 of <AB|CD> integrals:      2.500 (MW) /     19.996 (MB)
	Size of irrep 6 of <AB|CD> integrals:      2.022 (MW) /     16.177 (MB)
	Size of irrep 7 of <AB|CD> integrals:      2.022 (MW) /     16.177 (MB)
	Total:                                    16.107 (MW) /    128.857 (MB)

	Size of irrep 0 of <ab|cd> integrals:      2.323 (MW) /     18.581 (MB)
	Size of irrep 1 of <ab|cd> integrals:      1.672 (MW) /     13.375 (MB)
	Size of irrep 2 of <ab|cd> integrals:      2.103 (MW) /     16.820 (MB)
	Size of irrep 3 of <ab|cd> integrals:      2.053 (MW) /     16.428 (MB)
	Size of irrep 4 of <ab|cd> integrals:      1.672 (MW) /     13.375 (MB)
	Size of irrep 5 of <ab|cd> integrals:      2.557 (MW) /     20.454 (MB)
	Size of irrep 6 of <ab|cd> integrals:      2.053 (MW) /     16.428 (MB)
	Size of irrep 7 of <ab|cd> integrals:      2.105 (MW) /     16.843 (MB)
	Total:                                    16.538 (MW) /    132.304 (MB)

	Size of irrep 0 of <Ab|Cd> integrals:     10.119 (MW) /     80.950 (MB)
	Size of irrep 1 of <Ab|Cd> integrals:      6.595 (MW) /     52.757 (MB)
	Size of irrep 2 of <Ab|Cd> integrals:      8.248 (MW) /     65.987 (MB)
	Size of irrep 3 of <Ab|Cd> integrals:      8.151 (MW) /     65.208 (MB)
	Size of irrep 4 of <Ab|Cd> integrals:      6.595 (MW) /     52.757 (MB)
	Size of irrep 5 of <Ab|Cd> integrals:     10.112 (MW) /     80.899 (MB)
	Size of irrep 6 of <Ab|Cd> integrals:      8.151 (MW) /     65.208 (MB)
	Size of irrep 7 of <Ab|Cd> integrals:      8.254 (MW) /     66.033 (MB)
	Total:                                    66.225 (MW) /    529.800 (MB)

	Size of irrep 0 of <IA|BC> integrals:      0.497 (MW) /      3.973 (MB)
	Size of irrep 1 of <IA|BC> integrals:      0.268 (MW) /      2.142 (MB)
	Size of irrep 2 of <IA|BC> integrals:      0.378 (MW) /      3.026 (MB)
	Size of irrep 3 of <IA|BC> integrals:      0.378 (MW) /      3.026 (MB)
	Size of irrep 4 of <IA|BC> integrals:      0.268 (MW) /      2.142 (MB)
	Size of irrep 5 of <IA|BC> integrals:      0.500 (MW) /      3.997 (MB)
	Size of irrep 6 of <IA|BC> integrals:      0.378 (MW) /      3.026 (MB)
	Size of irrep 7 of <IA|BC> integrals:      0.378 (MW) /      3.026 (MB)
	Total:                                     3.045 (MW) /     24.358 (MB)

	Size of irrep 0 of <ia|bc> integrals:      0.445 (MW) /      3.558 (MB)
	Size of irrep 1 of <ia|bc> integrals:      0.228 (MW) /      1.821 (MB)
	Size of irrep 2 of <ia|bc> integrals:      0.310 (MW) /      2.482 (MB)
	Size of irrep 3 of <ia|bc> integrals:      0.350 (MW) /      2.797 (MB)
	Size of irrep 4 of <ia|bc> integrals:      0.228 (MW) /      1.821 (MB)
	Size of irrep 5 of <ia|bc> integrals:      0.451 (MW) /      3.607 (MB)
	Size of irrep 6 of <ia|bc> integrals:      0.350 (MW) /      2.797 (MB)
	Size of irrep 7 of <ia|bc> integrals:      0.305 (MW) /      2.438 (MB)
	Total:                                     2.665 (MW) /     21.321 (MB)

	Size of irrep 0 of <Ia|Bc> integrals:      0.503 (MW) /      4.021 (MB)
	Size of irrep 1 of <Ia|Bc> integrals:      0.272 (MW) /      2.178 (MB)
	Size of irrep 2 of <Ia|Bc> integrals:      0.388 (MW) /      3.102 (MB)
	Size of irrep 3 of <Ia|Bc> integrals:      0.380 (MW) /      3.038 (MB)
	Size of irrep 4 of <Ia|Bc> integrals:      0.272 (MW) /      2.178 (MB)
	Size of irrep 5 of <Ia|Bc> integrals:      0.506 (MW) /      4.045 (MB)
	Size of irrep 6 of <Ia|Bc> integrals:      0.380 (MW) /      3.038 (MB)
	Size of irrep 7 of <Ia|Bc> integrals:      0.385 (MW) /      3.080 (MB)
	Total:                                     3.085 (MW) /     24.678 (MB)

	Size of irrep 0 of <iA|bC> integrals:      0.442 (MW) /      3.537 (MB)
	Size of irrep 1 of <iA|bC> integrals:      0.223 (MW) /      1.787 (MB)
	Size of irrep 2 of <iA|bC> integrals:      0.302 (MW) /      2.412 (MB)
	Size of irrep 3 of <iA|bC> integrals:      0.348 (MW) /      2.786 (MB)
	Size of irrep 4 of <iA|bC> integrals:      0.223 (MW) /      1.787 (MB)
	Size of irrep 5 of <iA|bC> integrals:      0.445 (MW) /      3.562 (MB)
	Size of irrep 6 of <iA|bC> integrals:      0.348 (MW) /      2.786 (MB)
	Size of irrep 7 of <iA|bC> integrals:      0.299 (MW) /      2.390 (MB)
	Total:                                     2.631 (MW) /     21.049 (MB)

	Size of irrep 0 of tIjAb amplitudes:       0.025 (MW) /      0.204 (MB)
	Size of irrep 1 of tIjAb amplitudes:       0.008 (MW) /      0.062 (MB)
	Size of irrep 2 of tIjAb amplitudes:       0.011 (MW) /      0.092 (MB)
	Size of irrep 3 of tIjAb amplitudes:       0.017 (MW) /      0.137 (MB)
	Size of irrep 4 of tIjAb amplitudes:       0.008 (MW) /      0.062 (MB)
	Size of irrep 5 of tIjAb amplitudes:       0.022 (MW) /      0.178 (MB)
	Size of irrep 6 of tIjAb amplitudes:       0.017 (MW) /      0.137 (MB)
	Size of irrep 7 of tIjAb amplitudes:       0.014 (MW) /      0.115 (MB)
	Total:                                     0.123 (MW) /      0.986 (MB)

	Nuclear Rep. energy          =     24.40432007449714
	SCF energy                   =   -149.64966483243452
	One-electron energy          =    -84.35370325438525
	Two-electron (AA) energy     =      9.84023483669281
	Two-electron (BB) energy     =      6.71528556557121
	Two-electron (AB) energy     =     22.63571930019722
	Two-electron energy          =     39.19123970246123
	Reference energy             =   -149.64966483243469

*** tstop() called on cqc05 at Thu Aug 20 21:29:09 2020
Module time:
	user time   =       6.38 seconds =       0.11 minutes
	system time =       4.42 seconds =       0.07 minutes
	total time  =         12 seconds =       0.20 minutes
Total time:
	user time   =      15.44 seconds =       0.26 minutes
	system time =       4.87 seconds =       0.08 minutes
	total time  =         20 seconds =       0.33 minutes

*** tstart() called on cqc05
*** at Thu Aug 20 21:29:09 2020

            **************************
            *                        *
            *        CCENERGY        *
            *                        *
            **************************

    Nuclear Rep. energy (wfn)     =   24.404320074497139
    SCF energy          (wfn)     = -149.649664832434524
    Reference energy    (file100) = -149.649664832434695

    Input parameters:
    -----------------
    Wave function   =     CCSD
    Reference wfn   =     UHF
    Brueckner       =     No
    Memory (Mbytes) =     250000.0
    Maxiter         =     50
    R_Convergence   =     1.0e-07
    E_Convergence   =     1.0e-06
    Restart         =     Yes
    DIIS            =     Yes
    AO Basis        =     NONE
    ABCD            =     NEW
    Cache Level     =     2
    Cache Type      =     LRU
    Print Level     =     1
    Num. of threads =     4
    # Amps to Print =     10

      * MP2 total energy                      = -150.171957843060170
      * CCSD total energy                     = -150.166707035076342
*** Psi4 exiting successfully. Buy a developer a beer!
