                               Psi4 1.2a1.dev938

  ==> Input File <==

--------------------------------------------------------------------------
# Any line starting with the # character is a comment line
memory 250000 mb
molecule molecule{
1 2
P          0.0000000000        0.0000000000        0.0447142727
H          0.0000000000        0.0000000000       -1.3740591214
}

set {
  reference uhf
  basis aug-cc-pv(d+d)z
  scf_type OUT_OF_CORE
  freeze_core true
}

energy('ccsd')
--------------------------------------------------------------------------

    Molecular point group: c2v

    Geometry (in Angstrom), charge = 1, multiplicity = 2:

       Center              X                  Y                   Z               Mass
    ------------   -----------------  -----------------  -----------------  -----------------
           P          0.000000000000     0.000000000000     0.044709330921    30.973761629000
           H          0.000000000000     0.000000000000    -1.374064063179     1.007825032070

  Charge       = 1
  Multiplicity = 2
  Basis Set: AUG-CC-PV(D+D)Z
    Blend: AUG-CC-PV(D+D)Z

    Orbital Energies (a.u.)
    -----------------------

    Alpha Occupied:

       1A1   -80.371405     2A1    -7.902819     1B2    -5.805729
       1B1    -5.792037     3A1    -5.788635     4A1    -1.143639
       5A1    -0.785332     2B2    -0.707009

    Alpha Virtual:

       2B1    -0.328451     6A1    -0.124265     7A1    -0.083866
       3B2    -0.063554     8A1    -0.060560     3B1    -0.059563
       9A1    -0.002123     4B2     0.008180     4B1     0.020589
       1A2     0.021541    10A1     0.023839    11A1     0.179612
       5B1     0.258181     5B2     0.260889    12A1     0.311183
       6B2     0.409650     6B1     0.431352    13A1     0.453117
      14A1     0.496461     2A2     0.525623    15A1     0.526717
       7B2     0.529868     7B1     0.538291    16A1     0.828870
      17A1     0.883568     8B1     1.594549     8B2     1.598529
      18A1     1.976524    19A1     3.943402     3A2     3.944258
       9B1     3.981056     9B2     3.998823    20A1     4.067793

    Beta Occupied:

       1A1   -80.363420     2A1    -7.893502     1B1    -5.788025
       3A1    -5.784333     1B2    -5.767760     4A1    -1.061070
       5A1    -0.763849

    Beta Virtual:

       2B1    -0.310694     2B2    -0.254425     6A1    -0.118007
       7A1    -0.073627     3B1    -0.057686     8A1    -0.056950
       3B2    -0.045074     9A1     0.003312     4B1     0.022795
       4B2     0.045989     1A2     0.060112    10A1     0.061642
      11A1     0.187071     5B1     0.259086     5B2     0.271527
      12A1     0.320738     6B1     0.438817    13A1     0.456315
       6B2     0.477922    14A1     0.503546     7B1     0.541957
       2A2     0.576113     7B2     0.577044    15A1     0.578096
      16A1     0.836139    17A1     0.900521     8B1     1.593287
       8B2     1.604658    18A1     1.980676    19A1     3.951175
       3A2     3.952891     9B1     3.982177     9B2     4.007488
      20A1     4.072286

    Final Occupation by Irrep:
             A1    A2    B1    B2
    DOCC [     5,    0,    1,    1 ]
    SOCC [     0,    0,    0,    1 ]

  Energy converged.

  @UHF Final Energy:  -340.93458550295765

   => Energetics <=

    Nuclear Repulsion Energy =              5.5947328599894277
    One-Electron Energy =                -477.3400722542356789
    Two-Electron Energy =                 130.8107538912885843
    Total Energy =                       -340.9345855029576455

  UHF NO Occupations:
  HONO-2 :    4 A1 1.9997690
  HONO-1 :    5 A1 1.9923750
  HONO-0 :    2 B2 1.0000000
  LUNO+0 :    6 A1 0.0076250
  LUNO+1 :    7 A1 0.0002310
  LUNO+2 :    3 B2 0.0000009
  LUNO+3 :    8 A1 0.0000001

Properties will be evaluated at   0.000000,   0.000000,   0.000000 Bohr

Properties computed using the SCF density matrix

  Nuclear Dipole Moment: (a.u.)
     X:     0.0000      Y:     0.0000      Z:    -1.3293

  Electronic Dipole Moment: (a.u.)
     X:     0.0000      Y:     0.0000      Z:     0.9557

  Dipole Moment: (a.u.)
     X:     0.0000      Y:     0.0000      Z:    -0.3736     Total:     0.3736

  Dipole Moment: (Debye)
     X:     0.0000      Y:     0.0000      Z:    -0.9496     Total:     0.9496

*** tstop() called on cqc05 at Thu Aug 20 19:55:07 2020
Module time:
	user time   =       0.53 seconds =       0.01 minutes
	system time =       0.01 seconds =       0.00 minutes
	total time  =          1 seconds =       0.02 minutes
Total time:
	user time   =       0.53 seconds =       0.01 minutes
	system time =       0.01 seconds =       0.00 minutes
	total time  =          1 seconds =       0.02 minutes

*** tstart() called on cqc05
*** at Thu Aug 20 19:55:07 2020

	Wfn Parameters:
	--------------------
	Wavefunction         = CCSD
	Number of irreps     = 4
	Number of MOs        = 41
	Number of active MOs = 36
	AO-Basis             = NONE
	Semicanonical        = false
	Reference            = UHF
	Print Level          = 1

	IRREP	# MOs	# FZDC	# DOCC	# SOCC	# VIRT	# FZVR
	-----	-----	------	------	------	------	------
	 A1	   20	    3	    2	    0	    15	    0
	 A2	   3	    0	    0	    0	    3	    0
	 B1	   9	    1	    0	    0	    8	    0
	 B2	   9	    1	    0	    1	    7	    0
	Transforming integrals...
	IWL integrals will be deleted.
	(OO|OO)...
	Presorting SO-basis two-electron integrals.
	Sorting File: SO Ints (nn|nn) nbuckets = 1
	Transforming the one-electron integrals and constructing Fock matrices
	Starting AA/AB first half-transformation.
	Sorting AA/AB half-transformed integrals.
	Starting BB first half-transformation.
	Sorting BB half-transformed integrals.
	First half integral transformation complete.
	Starting AA second half-transformation.
	Starting AB second half-transformation.
	Starting BB second half-transformation.
	Two-electron integral transformation complete.
	(OO|OV)...
	Starting AA second half-transformation.
	Starting AB second half-transformation.
	Starting BB second half-transformation.
	Two-electron integral transformation complete.
	(OO|VV)...
	Starting AA second half-transformation.
	Starting AB second half-transformation.
	Starting BB second half-transformation.
	Two-electron integral transformation complete.
	(OV|OO)...
	Starting AA/AB first half-transformation.
	Sorting AA/AB half-transformed integrals.
	Starting BB first half-transformation.
	Sorting BB half-transformed integrals.
	First half integral transformation complete.
	Starting AA second half-transformation.
	Starting AB second half-transformation.
	Starting BB second half-transformation.
	Two-electron integral transformation complete.
	(OV|OV)...
	Starting AA second half-transformation.
	Starting AB second half-transformation.
	Starting BB second half-transformation.
	Two-electron integral transformation complete.
	(OV|VV)...
	Starting AA second half-transformation.
	Starting AB second half-transformation.
	Starting BB second half-transformation.
	Two-electron integral transformation complete.
	(VV|OO)...
	Starting AA/AB first half-transformation.
	Sorting AA/AB half-transformed integrals.
	Starting BB first half-transformation.
	Sorting BB half-transformed integrals.
	First half integral transformation complete.
	Starting AA second half-transformation.
	Starting AB second half-transformation.
	Starting BB second half-transformation.
	Two-electron integral transformation complete.
	(VV|OV)...
	Starting AA second half-transformation.
	Starting AB second half-transformation.
	Starting BB second half-transformation.
	Two-electron integral transformation complete.
	(VV|VV)...
	Starting AA second half-transformation.
	Starting AB second half-transformation.
	Starting BB second half-transformation.
	Two-electron integral transformation complete.
	Frozen core energy     =   -338.08662302810808

	Size of irrep 0 of <AB|CD> integrals:      0.025 (MW) /      0.197 (MB)
	Size of irrep 1 of <AB|CD> integrals:      0.010 (MW) /      0.082 (MB)
	Size of irrep 2 of <AB|CD> integrals:      0.020 (MW) /      0.159 (MB)
	Size of irrep 3 of <AB|CD> integrals:      0.017 (MW) /      0.133 (MB)
	Total:                                     0.071 (MW) /      0.571 (MB)

	Size of irrep 0 of <ab|cd> integrals:      0.027 (MW) /      0.215 (MB)
	Size of irrep 1 of <ab|cd> integrals:      0.012 (MW) /      0.095 (MB)
	Size of irrep 2 of <ab|cd> integrals:      0.021 (MW) /      0.166 (MB)
	Size of irrep 3 of <ab|cd> integrals:      0.021 (MW) /      0.166 (MB)
	Total:                                     0.080 (MW) /      0.642 (MB)

	Size of irrep 0 of <Ab|Cd> integrals:      0.125 (MW) /      1.003 (MB)
	Size of irrep 1 of <Ab|Cd> integrals:      0.044 (MW) /      0.353 (MB)
	Size of irrep 2 of <Ab|Cd> integrals:      0.081 (MW) /      0.650 (MB)
	Size of irrep 3 of <Ab|Cd> integrals:      0.075 (MW) /      0.596 (MB)
	Total:                                     0.325 (MW) /      2.601 (MB)

	Size of irrep 0 of <IA|BC> integrals:      0.013 (MW) /      0.103 (MB)
	Size of irrep 1 of <IA|BC> integrals:      0.003 (MW) /      0.023 (MB)
	Size of irrep 2 of <IA|BC> integrals:      0.005 (MW) /      0.043 (MB)
	Size of irrep 3 of <IA|BC> integrals:      0.007 (MW) /      0.060 (MB)
	Total:                                     0.029 (MW) /      0.228 (MB)

	Size of irrep 0 of <ia|bc> integrals:      0.011 (MW) /      0.087 (MB)
	Size of irrep 1 of <ia|bc> integrals:      0.001 (MW) /      0.010 (MB)
	Size of irrep 2 of <ia|bc> integrals:      0.005 (MW) /      0.037 (MB)
	Size of irrep 3 of <ia|bc> integrals:      0.005 (MW) /      0.037 (MB)
	Total:                                     0.021 (MW) /      0.171 (MB)

	Size of irrep 0 of <Ia|Bc> integrals:      0.013 (MW) /      0.108 (MB)
	Size of irrep 1 of <Ia|Bc> integrals:      0.003 (MW) /      0.024 (MB)
	Size of irrep 2 of <Ia|Bc> integrals:      0.005 (MW) /      0.043 (MB)
	Size of irrep 3 of <Ia|Bc> integrals:      0.008 (MW) /      0.068 (MB)
	Total:                                     0.030 (MW) /      0.242 (MB)

	Size of irrep 0 of <iA|bC> integrals:      0.011 (MW) /      0.085 (MB)
	Size of irrep 1 of <iA|bC> integrals:      0.001 (MW) /      0.010 (MB)
	Size of irrep 2 of <iA|bC> integrals:      0.005 (MW) /      0.036 (MB)
	Size of irrep 3 of <iA|bC> integrals:      0.004 (MW) /      0.031 (MB)
	Total:                                     0.020 (MW) /      0.162 (MB)

	Size of irrep 0 of tIjAb amplitudes:       0.001 (MW) /      0.011 (MB)
	Size of irrep 1 of tIjAb amplitudes:       0.000 (MW) /      0.000 (MB)
	Size of irrep 2 of tIjAb amplitudes:       0.000 (MW) /      0.000 (MB)
	Size of irrep 3 of tIjAb amplitudes:       0.001 (MW) /      0.004 (MB)
	Total:                                     0.002 (MW) /      0.016 (MB)

	Nuclear Rep. energy          =      5.59473285998943
	SCF energy                   =   -340.93458550295765
	One-electron energy          =    -12.42449080386207
	Two-electron (AA) energy     =      1.03111878221757
	Two-electron (BB) energy     =      0.31881204894715
	Two-electron (AB) energy     =      2.63186463785807
	Two-electron energy          =      3.98179546902280
	Reference energy             =   -340.93458550295793

*** tstop() called on cqc05 at Thu Aug 20 19:55:07 2020
Module time:
	user time   =       0.08 seconds =       0.00 minutes
	system time =       0.07 seconds =       0.00 minutes
	total time  =          0 seconds =       0.00 minutes
Total time:
	user time   =       0.61 seconds =       0.01 minutes
	system time =       0.08 seconds =       0.00 minutes
	total time  =          1 seconds =       0.02 minutes

*** tstart() called on cqc05
*** at Thu Aug 20 19:55:07 2020

            **************************
            *                        *
            *        CCENERGY        *
            *                        *
            **************************

    Nuclear Rep. energy (wfn)     =    5.594732859989428
    SCF energy          (wfn)     = -340.934585502957646
    Reference energy    (file100) = -340.934585502957930

    Input parameters:
    -----------------
    Wave function   =     CCSD
    Reference wfn   =     UHF
    Brueckner       =     No
    Memory (Mbytes) =     250000.0
    Maxiter         =     50
    R_Convergence   =     1.0e-07
    E_Convergence   =     1.0e-06
    Restart         =     Yes
    DIIS            =     Yes
    AO Basis        =     NONE
    ABCD            =     NEW
    Cache Level     =     2
    Cache Type      =     LRU
    Print Level     =     1
    Num. of threads =     4
    # Amps to Print =     10
    Print MP2 Amps? =     No
    Analyze T2 Amps =     No
    Print Pair Ener =     No
    Local CC        =     No
    SCS-MP2         =     False
    SCSN-MP2        =     False
    SCS-CCSD        =     False

MP2 correlation energy -0.0730373619661659
                Solving CC Amplitude Equations
                ------------------------------
  Iter             Energy              RMS        T1Diag      D1Diag    New D1Diag    D2Diag
  ----     ---------------------    ---------   ----------  ----------  ----------   --------
     0        -0.073037361966166    0.000e+00    0.000000    0.000000    0.000000    0.000000
     1        -0.090699477867870    5.957e-02    0.009697    0.000000    0.000000    0.000000
     2        -0.099348786375178    2.650e-02    0.018699    0.000000    0.000000    0.000000
     3        -0.099878180362916    7.156e-03    0.021601    0.000000    0.000000    0.000000
     4        -0.099990435750965    1.755e-03    0.021907    0.000000    0.000000    0.000000
     5        -0.099972663861572    6.382e-04    0.021898    0.000000    0.000000    0.000000
     6        -0.099966502837727    2.289e-04    0.021869    0.000000    0.000000    0.000000
     7        -0.099972897927124    6.339e-05    0.021870    0.000000    0.000000    0.000000
     8        -0.099970513753289    1.936e-05    0.021865    0.000000    0.000000    0.000000
     9        -0.099970734368147    6.613e-06    0.021865    0.000000    0.000000    0.000000
    10        -0.099970679326347    2.341e-06    0.021864    0.000000    0.000000    0.000000
    11        -0.099970734588918    8.860e-07    0.021864    0.000000    0.000000    0.000000
    12        -0.099970711666644    3.280e-07    0.021864    0.000000    0.000000    0.000000
    13        -0.099970714720665    7.983e-08    0.021864    0.000000    0.000000    0.000000
    13        -0.099970714720665    7.983e-08    0.021864    0.000000    0.000000    0.000000

    Iterations converged.

    CCSD corr. energy   =   -0.099970714720665
    PPL corr. energy    =    0.030495029940420
    OS PPL corr. energy =    0.028330786355971
    SS PPL corr. energy =    0.002164243584450
    Largest TIA Amplitudes:
              1   4         0.0172626516
              0   4         0.0165525086
              0   9        -0.0108458313
              1   9        -0.0099496137
              1   1         0.0096294160
              2  27        -0.0076115783
              1   2         0.0068594559
              1  10         0.0067103061
              1   5        -0.0052175625
              1   7         0.0043784889

    Largest Tia Amplitudes:
              0   1        -0.0172128010
              1   1        -0.0138676569
              0   2        -0.0121766440
              0   0         0.0106674623
              1   0         0.0095033453
              1   2        -0.0080930282
              0   3         0.0077902925
              0   7        -0.0070771544
              0   5         0.0068489861
              1   3         0.0065196235

    Largest TIJAB Amplitudes:
      2   1  27   1        -0.0360372370
      2   1  30   1        -0.0208787349
      2   0  18  15        -0.0208647726
      2   1  27   0         0.0179543931
      1   0  20  18         0.0171850867
      2   1  27   2        -0.0168769188
      2   1  27   7        -0.0160378540
      2   1  20  15         0.0153273310
      2   0  18  16        -0.0138150586
      2   1  30   7        -0.0125630614

    Largest Tijab Amplitudes:
      1   0  28  26         0.0173852298
      1   0  20  18         0.0151422925
      1   0  31  26         0.0121597892
      1   0  23  18         0.0099208807
      1   0  28  27         0.0057402245
      1   0   5   1         0.0054104999
      1   0  31  30        -0.0053321443
      1   0   6   5        -0.0051704217
      1   0   5   0        -0.0050470362
      1   0  30  28         0.0048956594

    Largest TIjAb Amplitudes:
      1   1  18  18        -0.1154876941
      0   0  18  18        -0.0915661343
      0   1  18  18        -0.0668089195
      2   0  15  18         0.0526046358
      1   1   1   1        -0.0504162287
      1   0  18  18        -0.0503146879
      2   0   4  26        -0.0442256510
      1   1   1   2        -0.0435716159
      2   1  15  18         0.0427195536
      1   0  20  18         0.0417849777

    SCF energy       (wfn)                    = -340.934585502957646
    Reference energy (file100)                = -340.934585502957930

    Opposite-spin MP2 correlation energy      =   -0.063608078215654
    Same-spin MP2 correlation energy          =   -0.009429283750506
    MP2 correlation energy                    =   -0.073037361966166
      * MP2 total energy                      = -341.007622864924087

    Opposite-spin CCSD correlation energy     =   -0.089513906301297
    Same-spin CCSD correlation energy         =   -0.010456808141783
    CCSD correlation energy                   =   -0.099970714720665
      * CCSD total energy                     = -341.034556217678585

*** tstop() called on cqc05 at Thu Aug 20 19:55:09 2020
Module time:
	user time   =       0.24 seconds =       0.00 minutes
	system time =       0.21 seconds =       0.00 minutes
	total time  =          2 seconds =       0.03 minutes

*** Psi4 exiting successfully. Buy a developer a beer!
