                               Psi4 1.2a1.dev938

  ==> Input File <==

--------------------------------------------------------------------------
# Any line starting with the # character is a comment line
memory 250000 mb
molecule molecule{
1 2
P          0.0000000000        0.0000000000        0.0447142727
H          0.0000000000        0.0000000000       -1.3740591214
}

set {
  reference uhf
  basis aug-cc-pv(q+d)z
  scf_type OUT_OF_CORE
  freeze_core true
}

energy('ccsd')
--------------------------------------------------------------------------

    Molecular point group: c2v

    Geometry (in Angstrom), charge = 1, multiplicity = 2:

       Center              X                  Y                   Z               Mass
    ------------   -----------------  -----------------  -----------------  -----------------
           P          0.000000000000     0.000000000000     0.044709330921    30.973761629000
           H          0.000000000000     0.000000000000    -1.374064063179     1.007825032070

  Charge       = 1
  Multiplicity = 2
  Basis Set: AUG-CC-PV(Q+D)Z
    Blend: AUG-CC-PV(Q+D)Z

    Orbital Energies (a.u.)
    -----------------------

    Alpha Occupied:

       1A1   -80.362717     2A1    -7.897581     1B1    -5.800753
       1B2    -5.785725     3A1    -5.782926     4A1    -1.141769
       5A1    -0.785509     2B1    -0.708629

    Alpha Virtual:

       2B2    -0.326787     6A1    -0.125034     7A1    -0.094789
       3B1    -0.074066     8A1    -0.073751     3B2    -0.071490
       4B1    -0.040192     4B2    -0.036323     1A2    -0.035424
       9A1    -0.035249    10A1    -0.023273    11A1     0.051083
      12A1     0.075218     5B1     0.091381     5B2     0.091781
       6B1     0.140730     6B2     0.150385    13A1     0.158454
       2A2     0.165682    14A1     0.167314     7B1     0.168469
       7B2     0.177632    15A1     0.208563     3A2     0.218992
      16A1     0.219357     8B1     0.219702     8B2     0.219773
      17A1     0.305923     9B2     0.332549     9B1     0.337311
      18A1     0.386348    19A1     0.486514    10B2     0.518322
      10B1     0.521422     4A2     0.570840    20A1     0.571061
      21A1     0.651677    11B2     0.760978     5A2     0.761056
      22A1     0.761370    11B1     0.764444    23A1     0.780755
      12B2     0.923724    12B1     0.923918    13B2     0.928791
      13B1     0.929113    24A1     0.948954     6A2     0.950409
      25A1     0.955840     7A2     0.955926    14B2     0.962366
      14B1     0.962366    26A1     0.978530    15B1     1.016287
      15B2     1.018015    27A1     1.112318    16B2     1.117893
      16B1     1.129068     8A2     1.165152    28A1     1.166701
      29A1     1.320017    17B2     1.417801    17B1     1.426338
      30A1     1.477949    18B2     1.546587    18B1     1.546595
      31A1     1.616336    32A1     1.845524    19B2     1.850025
      19B1     1.857834     9A2     1.858204    33A1     1.858378
      34A1     2.064544    10A2     2.151465    35A1     2.152163
      20B2     2.232408    20B1     2.248173    11A2     2.479264
      36A1     2.479419    21B2     2.513335    21B1     2.526717
      37A1     2.572042    22B2     2.681461    22B1     2.681464
      12A2     2.707283    38A1     2.707443    23B2     2.876566
      23B1     2.890205    39A1     2.904415    40A1     2.958386
      13A2     2.958386    24B2     2.974099    24B1     2.974106
      41A1     3.063636    25B2     3.231581    14A2     3.236848
      42A1     3.237846    25B1     3.245683    43A1     3.686775
      26B2     3.854828    26B1     3.870528    44A1     3.941442
      27B2     5.500174    27B1     5.516602    28B2     6.339323
      28B1     6.339324    45A1     6.613397    15A2     6.613510
      29B2     6.699506    29B1     6.709734    46A1     6.719338
      47A1     6.916730    48A1     7.242674    16A2     7.242745
      30B2     7.502162    30B1     7.514785    49A1     7.837647
      50A1     7.948919    31B2     8.285782    31B1     8.291836
      17A2     8.303997    51A1     8.304021    32B2     8.979139
      32B1     8.984253    52A1     9.335689    53A1    10.160191
      54A1    15.078235

    Beta Occupied:

       1A1   -80.354710     2A1    -7.888066     1B2    -5.781583
       3A1    -5.778812     1B1    -5.761464     4A1    -1.059846
       5A1    -0.764914

    Beta Virtual:

       2B2    -0.310373     2B1    -0.252904     6A1    -0.119184
       7A1    -0.084699     8A1    -0.072751     3B2    -0.070369
       3B1    -0.061422     4B2    -0.035767     4B1    -0.023107
       9A1    -0.022943     1A2    -0.020046    10A1    -0.016249
      11A1     0.056154    12A1     0.076356     5B2     0.092253
       5B1     0.099372     6B2     0.154389    13A1     0.160421
       6B1     0.178129     7B2     0.178333     7B1     0.201858
      14A1     0.203904     2A2     0.208030    15A1     0.222628
       3A2     0.222668    16A1     0.223341     8B2     0.225245
       8B1     0.225413    17A1     0.309198     9B2     0.333329
       9B1     0.344772    18A1     0.395288    19A1     0.489401
      10B2     0.518678    10B1     0.528189     4A2     0.573372
      20A1     0.574009    21A1     0.655505    11B2     0.762639
      22A1     0.776748    11B1     0.791306     5A2     0.796693
      23A1     0.809521    12B2     0.924990    12B1     0.946468
      13B2     0.953531    13B1     0.955345    24A1     0.956677
       6A2     0.965260    25A1     0.966284     7A2     0.968671
      14B2     0.972351    14B1     0.972906    26A1     0.997121
      15B2     1.025402    15B1     1.068335    27A1     1.114767
      16B2     1.118395    16B1     1.139152     8A2     1.172213
      28A1     1.175661    29A1     1.327137    17B2     1.418783
      17B1     1.435024    30A1     1.482257    18B2     1.549470
      18B1     1.549506    31A1     1.623959    32A1     1.850356
      19B2     1.851300     9A2     1.859520    33A1     1.860706
      19B1     1.869936    34A1     2.069755    10A2     2.167261
      35A1     2.170737    20B2     2.233834    20B1     2.264429
      11A2     2.485576    36A1     2.486054    21B2     2.514434
      21B1     2.537559    37A1     2.575338    22B2     2.712285
      22B1     2.712363    12A2     2.727201    38A1     2.728381
      23B2     2.876561    23B1     2.905226    39A1     2.907878
      40A1     2.984118    13A2     2.984120    24B2     2.992964
      24B1     2.993012    41A1     3.071151    25B2     3.232828
      14A2     3.248965    42A1     3.252134    25B1     3.256926
      43A1     3.688951    26B2     3.856669    26B1     3.885312
      44A1     3.945466    27B2     5.504803    27B1     5.548286
      28B2     6.339788    28B1     6.339788    45A1     6.614735
      15A2     6.614933    29B2     6.699588    29B1     6.715117
      46A1     6.720318    47A1     6.918397    48A1     7.253002
      16A2     7.253140    30B2     7.503011    30B1     7.522553
      49A1     7.837719    50A1     7.952781    31B2     8.284866
      31B1     8.293116    17A2     8.303560    51A1     8.303599
      32B2     8.978338    32B1     8.984690    52A1     9.335397
      53A1    10.162191    54A1    15.087251

    Final Occupation by Irrep:
             A1    A2    B1    B2
    DOCC [     5,    0,    1,    1 ]
    SOCC [     0,    0,    1,    0 ]

  Energy converged.

  @UHF Final Energy:  -340.94707166379061

   => Energetics <=

    Nuclear Repulsion Energy =              5.5947328599894277
    One-Electron Energy =                -477.4286064067516122
    Two-Electron Energy =                 130.8868018829715538
    PCM Polarization Energy =               0.0000000000000000
    Total Energy =                       -340.9470716637906094

    Alert: EFP and PCM quantities not currently incorporated into SCF psivars.
  UHF NO Occupations:
  HONO-2 :    4 A1 1.9996616
  HONO-1 :    5 A1 1.9913924
  HONO-0 :    2 B1 1.0000000
  LUNO+0 :    6 A1 0.0086076
  LUNO+1 :    7 A1 0.0003384
  LUNO+2 :    3 B1 0.0000036
  LUNO+3 :    2 B2 0.0000003

Properties will be evaluated at   0.000000,   0.000000,   0.000000 Bohr

Properties computed using the SCF density matrix

  Nuclear Dipole Moment: (a.u.)
     X:     0.0000      Y:     0.0000      Z:    -1.3293

  Electronic Dipole Moment: (a.u.)
     X:     0.0000      Y:     0.0000      Z:     0.9641

  Dipole Moment: (a.u.)
     X:     0.0000      Y:     0.0000      Z:    -0.3652     Total:     0.3652

  Dipole Moment: (Debye)
     X:     0.0000      Y:     0.0000      Z:    -0.9282     Total:     0.9282

*** tstop() called on cqc05 at Thu Aug 20 21:33:02 2020
Module time:
	user time   =       7.15 seconds =       0.12 minutes
	system time =       0.46 seconds =       0.01 minutes
	total time  =          7 seconds =       0.12 minutes
Total time:
	user time   =       7.15 seconds =       0.12 minutes
	system time =       0.46 seconds =       0.01 minutes
	total time  =          7 seconds =       0.12 minutes

*** tstart() called on cqc05
*** at Thu Aug 20 21:33:02 2020

	Wfn Parameters:
	--------------------
	Wavefunction         = CCSD
	Number of irreps     = 4
	Number of MOs        = 135
	Number of active MOs = 130
	AO-Basis             = NONE
	Semicanonical        = false
	Reference            = UHF
	Print Level          = 1

	IRREP	# MOs	# FZDC	# DOCC	# SOCC	# VIRT	# FZVR
	-----	-----	------	------	------	------	------
	 A1	   54	    3	    2	    0	    49	    0
	 A2	   17	    0	    0	    0	    17	    0
	 B1	   32	    1	    0	    1	    30	    0
	 B2	   32	    1	    0	    0	    31	    0
	Transforming integrals...
	IWL integrals will be deleted.
	(OO|OO)...
	Presorting SO-basis two-electron integrals.
	Sorting File: SO Ints (nn|nn) nbuckets = 1
	Transforming the one-electron integrals and constructing Fock matrices
	Starting AA/AB first half-transformation.
	Sorting AA/AB half-transformed integrals.
	Starting BB first half-transformation.
	Sorting BB half-transformed integrals.
	First half integral transformation complete.
	Starting AA second half-transformation.
	Starting AB second half-transformation.
	Starting BB second half-transformation.
	Two-electron integral transformation complete.
	(OO|OV)...
	Starting AA second half-transformation.
	Starting AB second half-transformation.
	Starting BB second half-transformation.
	Two-electron integral transformation complete.
	(OO|VV)...
	Starting AA second half-transformation.
	Starting AB second half-transformation.
	Starting BB second half-transformation.
	Two-electron integral transformation complete.
	(OV|OO)...
	Starting AA/AB first half-transformation.
	Sorting AA/AB half-transformed integrals.
	Starting BB first half-transformation.
	Sorting BB half-transformed integrals.
	First half integral transformation complete.
	Starting AA second half-transformation.
	Starting AB second half-transformation.
	Starting BB second half-transformation.
	Two-electron integral transformation complete.
	(OV|OV)...
	Starting AA second half-transformation.
	Starting AB second half-transformation.
	Starting BB second half-transformation.
	Two-electron integral transformation complete.
	(OV|VV)...
	Starting AA second half-transformation.
	Starting AB second half-transformation.
	Starting BB second half-transformation.
	Two-electron integral transformation complete.
	(VV|OO)...
	Starting AA/AB first half-transformation.
	Sorting AA/AB half-transformed integrals.
	Starting BB first half-transformation.
	Sorting BB half-transformed integrals.
	First half integral transformation complete.
	Starting AA second half-transformation.
	Starting AB second half-transformation.
	Starting BB second half-transformation.
	Two-electron integral transformation complete.
	(VV|OV)...
	Starting AA second half-transformation.
	Starting AB second half-transformation.
	Starting BB second half-transformation.
	Two-electron integral transformation complete.
	(VV|VV)...
	Starting AA second half-transformation.
	Starting AB second half-transformation.
	Starting BB second half-transformation.
	Two-electron integral transformation complete.
	Frozen core energy     =   -338.09272662792699

	Size of irrep 0 of <AB|CD> integrals:      4.893 (MW) /     39.144 (MB)
	Size of irrep 1 of <AB|CD> integrals:      3.108 (MW) /     24.865 (MB)
	Size of irrep 2 of <AB|CD> integrals:      3.988 (MW) /     31.904 (MB)
	Size of irrep 3 of <AB|CD> integrals:      4.117 (MW) /     32.935 (MB)
	Total:                                    16.106 (MW) /    128.848 (MB)

	Size of irrep 0 of <ab|cd> integrals:      5.027 (MW) /     40.213 (MB)
	Size of irrep 1 of <ab|cd> integrals:      3.218 (MW) /     25.747 (MB)
	Size of irrep 2 of <ab|cd> integrals:      4.186 (MW) /     33.489 (MB)
	Size of irrep 3 of <ab|cd> integrals:      4.186 (MW) /     33.489 (MB)
	Total:                                    16.617 (MW) /    132.938 (MB)

	Size of irrep 0 of <Ab|Cd> integrals:     20.986 (MW) /    167.884 (MB)
	Size of irrep 1 of <Ab|Cd> integrals:     12.652 (MW) /    101.218 (MB)
	Size of irrep 2 of <Ab|Cd> integrals:     16.346 (MW) /    130.767 (MB)
	Size of irrep 3 of <Ab|Cd> integrals:     16.606 (MW) /    132.845 (MB)
	Total:                                    66.589 (MW) /    532.714 (MB)

	Size of irrep 0 of <IA|BC> integrals:      0.583 (MW) /      4.660 (MB)
	Size of irrep 1 of <IA|BC> integrals:      0.229 (MW) /      1.834 (MB)
	Size of irrep 2 of <IA|BC> integrals:      0.435 (MW) /      3.483 (MB)
	Size of irrep 3 of <IA|BC> integrals:      0.321 (MW) /      2.565 (MB)
	Total:                                     1.568 (MW) /     12.541 (MB)

	Size of irrep 0 of <ia|bc> integrals:      0.452 (MW) /      3.616 (MB)
	Size of irrep 1 of <ia|bc> integrals:      0.122 (MW) /      0.976 (MB)
	Size of irrep 2 of <ia|bc> integrals:      0.254 (MW) /      2.030 (MB)
	Size of irrep 3 of <ia|bc> integrals:      0.254 (MW) /      2.030 (MB)
	Total:                                     1.081 (MW) /      8.651 (MB)

	Size of irrep 0 of <Ia|Bc> integrals:      0.591 (MW) /      4.728 (MB)
	Size of irrep 1 of <Ia|Bc> integrals:      0.231 (MW) /      1.850 (MB)
	Size of irrep 2 of <Ia|Bc> integrals:      0.449 (MW) /      3.590 (MB)
	Size of irrep 3 of <Ia|Bc> integrals:      0.322 (MW) /      2.575 (MB)
	Total:                                     1.593 (MW) /     12.743 (MB)

	Size of irrep 0 of <iA|bC> integrals:      0.449 (MW) /      3.592 (MB)
	Size of irrep 1 of <iA|bC> integrals:      0.121 (MW) /      0.968 (MB)
	Size of irrep 2 of <iA|bC> integrals:      0.243 (MW) /      1.941 (MB)
	Size of irrep 3 of <iA|bC> integrals:      0.253 (MW) /      2.021 (MB)
	Total:                                     1.065 (MW) /      8.521 (MB)

	Size of irrep 0 of tIjAb amplitudes:       0.018 (MW) /      0.147 (MB)
	Size of irrep 1 of tIjAb amplitudes:       0.000 (MW) /      0.000 (MB)
	Size of irrep 2 of tIjAb amplitudes:       0.008 (MW) /      0.065 (MB)
	Size of irrep 3 of tIjAb amplitudes:       0.000 (MW) /      0.000 (MB)
	Total:                                     0.026 (MW) /      0.211 (MB)

	Nuclear Rep. energy          =      5.59473285998943
	SCF energy                   =   -340.94707166379061
	One-electron energy          =    -12.43749005133902
	Two-electron (AA) energy     =      1.03248323639586
	Two-electron (BB) energy     =      0.31923734329805
	Two-electron (AB) energy     =      2.63669157578959
	Two-electron energy          =      3.98841215548350
	Reference energy             =   -340.94707166379305

*** tstop() called on cqc05 at Thu Aug 20 21:33:13 2020
Module time:
	user time   =       6.11 seconds =       0.10 minutes
	system time =       4.38 seconds =       0.07 minutes
	total time  =         11 seconds =       0.18 minutes
Total time:
	user time   =      13.26 seconds =       0.22 minutes
	system time =       4.84 seconds =       0.08 minutes
	total time  =         18 seconds =       0.30 minutes

*** tstart() called on cqc05
*** at Thu Aug 20 21:33:13 2020

            **************************
            *                        *
            *        CCENERGY        *
            *                        *
            **************************

    Nuclear Rep. energy (wfn)     =    5.594732859989428
    SCF energy          (wfn)     = -340.947071663790609
    Reference energy    (file100) = -340.947071663793054

    Input parameters:
    -----------------
    Wave function   =     CCSD
    Reference wfn   =     UHF
    Brueckner       =     No
    Memory (Mbytes) =     250000.0
    Maxiter         =     50
    R_Convergence   =     1.0e-07
    E_Convergence   =     1.0e-06
    Restart         =     Yes
    DIIS            =     Yes
    AO Basis        =     NONE
    ABCD            =     NEW
    Cache Level     =     2
    Cache Type      =     LRU
    Print Level     =     1
    Num. of threads =     4
    # Amps to Print =     10
    Print MP2 Amps? =     No
    Analyze T2 Amps =     No
    Print Pair Ener =     No
    Local CC        =     No
    SCS-MP2         =     False
    SCSN-MP2        =     False
    SCS-CCSD        =     False

MP2 correlation energy -0.0962520407548424
                Solving CC Amplitude Equations
                ------------------------------
  Iter             Energy              RMS        T1Diag      D1Diag    New D1Diag    D2Diag
  ----     ---------------------    ---------   ----------  ----------  ----------   --------
     0        -0.096252040754844    0.000e+00    0.000000    0.000000    0.000000    0.000000
     1        -0.111688136996049    5.656e-02    0.011114    0.000000    0.000000    0.000000
     2        -0.119934327210451    2.564e-02    0.020016    0.000000    0.000000    0.000000
     3        -0.120321991299658    6.822e-03    0.022615    0.000000    0.000000    0.000000
     4        -0.120415071241203    2.048e-03    0.023023    0.000000    0.000000    0.000000
     5        -0.120418843194398    8.335e-04    0.023053    0.000000    0.000000    0.000000
     6        -0.120411950308122    2.586e-04    0.023018    0.000000    0.000000    0.000000
     7        -0.120416222004055    8.218e-05    0.023011    0.000000    0.000000    0.000000
     8        -0.120416476378891    2.563e-05    0.023010    0.000000    0.000000    0.000000
     9        -0.120415962456528    8.040e-06    0.023009    0.000000    0.000000    0.000000
    10        -0.120415950774452    2.708e-06    0.023009    0.000000    0.000000    0.000000
    11        -0.120415989581285    9.555e-07    0.023009    0.000000    0.000000    0.000000
    12        -0.120416016610086    3.324e-07    0.023009    0.000000    0.000000    0.000000
    13        -0.120416010991592    1.267e-07    0.023009    0.000000    0.000000    0.000000
    14        -0.120416009675474    4.138e-08    0.023009    0.000000    0.000000    0.000000
    14        -0.120416009675474    4.138e-08    0.023009    0.000000    0.000000    0.000000

    Iterations converged.

    CCSD corr. energy   =   -0.120416009675474
    PPL corr. energy    =    0.041920554022607
    OS PPL corr. energy =    0.038970586098207
    SS PPL corr. energy =    0.002949967924401
    Largest TIA Amplitudes:
              0   8         0.0141672804
              1   1         0.0123095985
              1   3        -0.0123024303
              1   8         0.0120800205
              1   7        -0.0113446831
              0   3        -0.0112762983
              1   2         0.0076130380
              2  67        -0.0072983519
              0  16        -0.0068987510
              1  16        -0.0058058757

    Largest Tia Amplitudes:
              0   1        -0.0195806111

      * MP2 total energy                      = -341.043323704547902
      * CCSD total energy                     = -341.067487673468520
*** Psi4 exiting successfully. Buy a developer a beer!
