                               Psi4 1.2a1.dev938

  ==> Input File <==

--------------------------------------------------------------------------
# Any line starting with the # character is a comment line
memory 250000 mb
molecule molecule{
0 4
P          0.0000000000        0.0000000000        0.0000000000
}

set {
  reference uhf
  basis aug-cc-pv(t+d)z
  scf_type OUT_OF_CORE
  freeze_core true
}

energy('ccsd')
--------------------------------------------------------------------------

    Molecular point group: d2h
    Geometry (in Angstrom), charge = 0, multiplicity = 4:

       Center              X                  Y                   Z               Mass
    ------------   -----------------  -----------------  -----------------  -----------------
           P          0.000000000000     0.000000000000     0.000000000000    30.973761629000

  Charge       = 0
  Multiplicity = 4
  Basis Set: AUG-CC-PV(T+D)Z
    Blend: AUG-CC-PV(T+D)Z

    Orbital Energies (a.u.)
    -----------------------

    Alpha Occupied:

       1Ag   -79.980605     2Ag    -7.522535     1B2u   -5.421252
       1B1u   -5.421252     1B3u   -5.421252     3Ag    -0.836479
       2B3u   -0.392176     2B1u   -0.392176     2B2u   -0.392176

    Alpha Virtual:

       4Ag     0.081250     3B2u    0.085233     3B1u    0.085233
       3B3u    0.085233     5Ag     0.194163     1B3g    0.194163
       1B2g    0.194163     6Ag     0.194163     1B1g    0.194163
       4B3u    0.490009     4B1u    0.490009     4B2u    0.490009
       2B3g    0.543834     2B1g    0.543834     7Ag     0.543834
       2B2g    0.543834     8Ag     0.543834     9Ag     0.588276
       5B3u    0.639093     5B2u    0.639093     5B1u    0.639093
       6B2u    0.639093     6B3u    0.639093     6B1u    0.639093
       1Au     0.639093     3B1g    1.573277     3B3g    1.573277
      10Ag     1.573277     3B2g    1.573277    11Ag     1.573277
       7B1u    1.853831     8B1u    1.853831     2Au     1.853831
       7B3u    1.853831     8B3u    1.853831     7B2u    1.853831
       8B2u    1.853831     9B1u    2.269601     9B3u    2.269601
       9B2u    2.269601    12Ag     3.308322     4B3g    6.192694
       4B2g    6.192694    13Ag     6.192694     4B1g    6.192694
      14Ag     6.192694

    Beta Occupied:

       1Ag   -79.960712     2Ag    -7.500582     1B2u   -5.381175
       1B1u   -5.381175     1B3u   -5.381175     3Ag    -0.556877

    Beta Virtual:

       2B3u    0.029937     2B1u    0.029937     2B2u    0.029937
       4Ag     0.097653     3B2u    0.125826     3B3u    0.125826
       3B1u    0.125826     5Ag     0.232890     1B3g    0.232890
       1B2g    0.232890     1B1g    0.232890     6Ag     0.232890
       4B3u    0.566196     4B1u    0.566196     4B2u    0.566196
       7Ag     0.642096     8Ag     0.653214     2B1g    0.653214
       2B3g    0.653214     2B2g    0.653214     9Ag     0.653214
       5B2u    0.669512     5B3u    0.669512     6B2u    0.669512
       5B1u    0.669512     6B3u    0.669512     1Au     0.669512
       6B1u    0.669512     3B1g    1.626955     3B3g    1.626955
      10Ag     1.626955     3B2g    1.626955    11Ag     1.626955
       7B1u    1.922972     8B1u    1.922972     2Au     1.922972
       7B3u    1.922972     8B3u    1.922972     7B2u    1.922972
       8B2u    1.922972     9B1u    2.334033     9B3u    2.334033
       9B2u    2.334033    12Ag     3.350803     4B2g    6.209951
       4B3g    6.209951    13Ag     6.209951     4B1g    6.209951
      14Ag     6.209951

    Final Occupation by Irrep:
             Ag   B1g   B2g   B3g    Au   B1u   B2u   B3u
    DOCC [     3,    0,    0,    0,    0,    1,    1,    1 ]
    SOCC [     0,    0,    0,    0,    0,    1,    1,    1 ]

  Energy converged.

  @UHF Final Energy:  -340.71649154999676

   => Energetics <=

    Nuclear Repulsion Energy =              0.0000000000000000
    One-Electron Energy =                -471.4913868514400974
    Two-Electron Energy =                 130.7748953014433368
    Total Energy =                       -340.7164915499967606

  UHF NO Occupations:
  HONO-2 :    2B3u 1.0000000
  HONO-1 :    2B1u 1.0000000
  HONO-0 :    2B2u 1.0000000
  LUNO+0 :    4 Ag 0.0002856
  LUNO+1 :    3B3u 0.0000038
  LUNO+2 :    3B2u 0.0000038
  LUNO+3 :    3B1u 0.0000038

Properties will be evaluated at   0.000000,   0.000000,   0.000000 Bohr

Properties computed using the SCF density matrix

  Nuclear Dipole Moment: (a.u.)
     X:     0.0000      Y:     0.0000      Z:     0.0000

  Electronic Dipole Moment: (a.u.)
     X:     0.0000      Y:     0.0000      Z:     0.0000

  Dipole Moment: (a.u.)
     X:     0.0000      Y:     0.0000      Z:     0.0000     Total:     0.0000

  Dipole Moment: (Debye)
     X:     0.0000      Y:     0.0000      Z:     0.0000     Total:     0.0000

*** tstop() called on cqc05 at Thu Aug 20 20:10:59 2020
Module time:
	user time   =       0.57 seconds =       0.01 minutes
	system time =       0.03 seconds =       0.00 minutes
	total time  =          0 seconds =       0.00 minutes
Total time:
	user time   =       0.57 seconds =       0.01 minutes
	system time =       0.03 seconds =       0.00 minutes
	total time  =          0 seconds =       0.00 minutes

*** tstart() called on cqc05
*** at Thu Aug 20 20:10:59 2020

	Wfn Parameters:
	--------------------
	Wavefunction         = CCSD
	Number of irreps     = 8
	Number of MOs        = 55
	Number of active MOs = 50
	AO-Basis             = NONE
	Semicanonical        = false
	Reference            = UHF
	Print Level          = 1

	IRREP	# MOs	# FZDC	# DOCC	# SOCC	# VIRT	# FZVR
	-----	-----	------	------	------	------	------
	 Ag	   14	    2	    1	    0	    11	    0
	 B1g	   4	    0	    0	    0	    4	    0
	 B2g	   4	    0	    0	    0	    4	    0
	 B3g	   4	    0	    0	    0	    4	    0
	 Au	   2	    0	    0	    0	    2	    0
	 B1u	   9	    1	    0	    1	    7	    0
	 B2u	   9	    1	    0	    1	    7	    0
	 B3u	   9	    1	    0	    1	    7	    0
	Transforming integrals...
	IWL integrals will be deleted.
	(OO|OO)...
	Presorting SO-basis two-electron integrals.
	Sorting File: SO Ints (nn|nn) nbuckets = 1
	Transforming the one-electron integrals and constructing Fock matrices
	Starting AA/AB first half-transformation.
	Sorting AA/AB half-transformed integrals.
	Starting BB first half-transformation.
	Sorting BB half-transformed integrals.
	First half integral transformation complete.
	Starting AA second half-transformation.
	Starting AB second half-transformation.
	Starting BB second half-transformation.
	Two-electron integral transformation complete.
	(OO|OV)...
	Starting AA second half-transformation.
	Starting AB second half-transformation.
	Starting BB second half-transformation.
	Two-electron integral transformation complete.
	(OO|VV)...
	Starting AA second half-transformation.
	Starting AB second half-transformation.
	Starting BB second half-transformation.
	Two-electron integral transformation complete.
	(OV|OO)...
	Starting AA/AB first half-transformation.
	Sorting AA/AB half-transformed integrals.
	Starting BB first half-transformation.
	Sorting BB half-transformed integrals.
	First half integral transformation complete.
	Starting AA second half-transformation.
	Starting AB second half-transformation.
	Starting BB second half-transformation.
	Two-electron integral transformation complete.
	(OV|OV)...
	Starting AA second half-transformation.
	Starting AB second half-transformation.
	Starting BB second half-transformation.
	Two-electron integral transformation complete.
	(OV|VV)...
	Starting AA second half-transformation.
	Starting AB second half-transformation.
	Starting BB second half-transformation.
	Two-electron integral transformation complete.
	(VV|OO)...
	Starting AA/AB first half-transformation.
	Sorting AA/AB half-transformed integrals.
	Starting BB first half-transformation.
	Sorting BB half-transformed integrals.
	First half integral transformation complete.
	Starting AA second half-transformation.
	Starting AB second half-transformation.
	Starting BB second half-transformation.
	Two-electron integral transformation complete.
	(VV|OV)...
	Starting AA second half-transformation.
	Starting AB second half-transformation.
	Starting BB second half-transformation.
	Two-electron integral transformation complete.
	(VV|VV)...
	Starting AA second half-transformation.
	Starting AB second half-transformation.
	Starting BB second half-transformation.
	Two-electron integral transformation complete.
	Frozen core energy     =   -334.36037438822962

	Size of irrep 0 of <AB|CD> integrals:      0.019 (MW) /      0.150 (MB)
	Size of irrep 1 of <AB|CD> integrals:      0.015 (MW) /      0.121 (MB)
	Size of irrep 2 of <AB|CD> integrals:      0.015 (MW) /      0.121 (MB)
	Size of irrep 3 of <AB|CD> integrals:      0.015 (MW) /      0.121 (MB)
	Size of irrep 4 of <AB|CD> integrals:      0.011 (MW) /      0.090 (MB)
	Size of irrep 5 of <AB|CD> integrals:      0.020 (MW) /      0.159 (MB)
	Size of irrep 6 of <AB|CD> integrals:      0.020 (MW) /      0.159 (MB)
	Size of irrep 7 of <AB|CD> integrals:      0.020 (MW) /      0.159 (MB)
	Total:                                     0.135 (MW) /      1.080 (MB)

	Size of irrep 0 of <ab|cd> integrals:      0.025 (MW) /      0.200 (MB)
	Size of irrep 1 of <ab|cd> integrals:      0.020 (MW) /      0.157 (MB)
	Size of irrep 2 of <ab|cd> integrals:      0.020 (MW) /      0.157 (MB)
	Size of irrep 3 of <ab|cd> integrals:      0.020 (MW) /      0.157 (MB)
	Size of irrep 4 of <ab|cd> integrals:      0.014 (MW) /      0.111 (MB)
	Size of irrep 5 of <ab|cd> integrals:      0.026 (MW) /      0.205 (MB)
	Size of irrep 6 of <ab|cd> integrals:      0.026 (MW) /      0.205 (MB)
	Size of irrep 7 of <ab|cd> integrals:      0.026 (MW) /      0.205 (MB)
	Total:                                     0.174 (MW) /      1.396 (MB)

	Size of irrep 0 of <Ab|Cd> integrals:      0.116 (MW) /      0.930 (MB)
	Size of irrep 1 of <Ab|Cd> integrals:      0.069 (MW) /      0.549 (MB)
	Size of irrep 2 of <Ab|Cd> integrals:      0.069 (MW) /      0.549 (MB)
	Size of irrep 3 of <Ab|Cd> integrals:      0.069 (MW) /      0.549 (MB)
	Size of irrep 4 of <Ab|Cd> integrals:      0.050 (MW) /      0.401 (MB)
	Size of irrep 5 of <Ab|Cd> integrals:      0.091 (MW) /      0.725 (MB)
	Size of irrep 6 of <Ab|Cd> integrals:      0.091 (MW) /      0.725 (MB)
	Size of irrep 7 of <Ab|Cd> integrals:      0.091 (MW) /      0.725 (MB)
	Total:                                     0.644 (MW) /      5.154 (MB)

	Size of irrep 0 of <IA|BC> integrals:      0.010 (MW) /      0.082 (MB)
	Size of irrep 1 of <IA|BC> integrals:      0.005 (MW) /      0.039 (MB)
	Size of irrep 2 of <IA|BC> integrals:      0.005 (MW) /      0.039 (MB)
	Size of irrep 3 of <IA|BC> integrals:      0.005 (MW) /      0.039 (MB)
	Size of irrep 4 of <IA|BC> integrals:      0.003 (MW) /      0.024 (MB)
	Size of irrep 5 of <IA|BC> integrals:      0.007 (MW) /      0.059 (MB)
	Size of irrep 6 of <IA|BC> integrals:      0.007 (MW) /      0.059 (MB)
	Size of irrep 7 of <IA|BC> integrals:      0.007 (MW) /      0.059 (MB)
	Total:                                     0.050 (MW) /      0.400 (MB)

	Size of irrep 0 of <ia|bc> integrals:      0.004 (MW) /      0.032 (MB)
	Size of irrep 1 of <ia|bc> integrals:      0.001 (MW) /      0.009 (MB)
	Size of irrep 2 of <ia|bc> integrals:      0.001 (MW) /      0.009 (MB)
	Size of irrep 3 of <ia|bc> integrals:      0.001 (MW) /      0.009 (MB)
	Size of irrep 4 of <ia|bc> integrals:      0.000 (MW) /      0.004 (MB)
	Size of irrep 5 of <ia|bc> integrals:      0.003 (MW) /      0.020 (MB)
	Size of irrep 6 of <ia|bc> integrals:      0.003 (MW) /      0.020 (MB)
	Size of irrep 7 of <ia|bc> integrals:      0.003 (MW) /      0.020 (MB)
	Total:                                     0.016 (MW) /      0.124 (MB)

	Size of irrep 0 of <Ia|Bc> integrals:      0.012 (MW) /      0.095 (MB)
	Size of irrep 1 of <Ia|Bc> integrals:      0.006 (MW) /      0.046 (MB)
	Size of irrep 2 of <Ia|Bc> integrals:      0.006 (MW) /      0.046 (MB)
	Size of irrep 3 of <Ia|Bc> integrals:      0.006 (MW) /      0.046 (MB)
	Size of irrep 4 of <Ia|Bc> integrals:      0.003 (MW) /      0.025 (MB)
	Size of irrep 5 of <Ia|Bc> integrals:      0.008 (MW) /      0.065 (MB)
	Size of irrep 6 of <Ia|Bc> integrals:      0.008 (MW) /      0.065 (MB)
	Size of irrep 7 of <Ia|Bc> integrals:      0.008 (MW) /      0.065 (MB)
	Total:                                     0.057 (MW) /      0.454 (MB)

	Size of irrep 0 of <iA|bC> integrals:      0.004 (MW) /      0.030 (MB)
	Size of irrep 1 of <iA|bC> integrals:      0.001 (MW) /      0.008 (MB)
	Size of irrep 2 of <iA|bC> integrals:      0.001 (MW) /      0.008 (MB)
	Size of irrep 3 of <iA|bC> integrals:      0.001 (MW) /      0.008 (MB)
	Size of irrep 4 of <iA|bC> integrals:      0.000 (MW) /      0.004 (MB)
	Size of irrep 5 of <iA|bC> integrals:      0.002 (MW) /      0.017 (MB)
	Size of irrep 6 of <iA|bC> integrals:      0.002 (MW) /      0.017 (MB)
	Size of irrep 7 of <iA|bC> integrals:      0.002 (MW) /      0.017 (MB)
	Total:                                     0.014 (MW) /      0.109 (MB)

	Size of irrep 0 of tIjAb amplitudes:       0.000 (MW) /      0.003 (MB)
	Size of irrep 1 of tIjAb amplitudes:       0.000 (MW) /      0.000 (MB)
	Size of irrep 2 of tIjAb amplitudes:       0.000 (MW) /      0.000 (MB)
	Size of irrep 3 of tIjAb amplitudes:       0.000 (MW) /      0.000 (MB)
	Size of irrep 4 of tIjAb amplitudes:       0.000 (MW) /      0.000 (MB)
	Size of irrep 5 of tIjAb amplitudes:       0.000 (MW) /      0.002 (MB)
	Size of irrep 6 of tIjAb amplitudes:       0.000 (MW) /      0.002 (MB)
	Size of irrep 7 of tIjAb amplitudes:       0.000 (MW) /      0.002 (MB)
	Total:                                     0.001 (MW) /      0.010 (MB)

	Nuclear Rep. energy          =      0.00000000000000
	SCF energy                   =   -340.71649154999676
	One-electron energy          =    -10.14235160230969
	Two-electron (AA) energy     =      2.04979070259094
	Two-electron (BB) energy     =      0.00000000000000
	Two-electron (AB) energy     =      1.73644373795212
	Two-electron energy          =      3.78623444054306
	Reference energy             =   -340.71649154999625

*** tstop() called on cqc05 at Thu Aug 20 20:11:00 2020
Module time:
	user time   =       0.12 seconds =       0.00 minutes
	system time =       0.09 seconds =       0.00 minutes
	total time  =          1 seconds =       0.02 minutes
Total time:
	user time   =       0.69 seconds =       0.01 minutes
	system time =       0.12 seconds =       0.00 minutes
	total time  =          1 seconds =       0.02 minutes

*** tstart() called on cqc05
*** at Thu Aug 20 20:11:00 2020

            **************************
            *                        *
            *        CCENERGY        *
            *                        *
            **************************

    Nuclear Rep. energy (wfn)     =    0.000000000000000
    SCF energy          (wfn)     = -340.716491549996761
    Reference energy    (file100) = -340.716491549996249

    Input parameters:
    -----------------
    Wave function   =     CCSD
    Reference wfn   =     UHF
    Brueckner       =     No
    Memory (Mbytes) =     250000.0
    Maxiter         =     50
    R_Convergence   =     1.0e-07
    E_Convergence   =     1.0e-06
    Restart         =     Yes
    DIIS            =     Yes
    AO Basis        =     NONE
    ABCD            =     NEW
    Cache Level     =     2
    Cache Type      =     LRU
    Print Level     =     1
    Num. of threads =     4
    # Amps to Print =     10
    Print MP2 Amps? =     No
    Analyze T2 Amps =     No
    Print Pair Ener =     No
    Local CC        =     No
    SCS-MP2         =     False
    SCSN-MP2        =     False
    SCS-CCSD        =     False

MP2 correlation energy -0.0844348134654358
                Solving CC Amplitude Equations
                ------------------------------
  Iter             Energy              RMS        T1Diag      D1Diag    New D1Diag    D2Diag
  ----     ---------------------    ---------   ----------  ----------  ----------   --------
     0        -0.084434813465436    0.000e+00    0.000000    0.000000    0.000000    0.000000
     1        -0.098212661228033    4.364e-02    0.004246    0.000000    0.000000    0.000000
     2        -0.102004839742309    1.282e-02    0.006010    0.000000    0.000000    0.000000
     3        -0.102215742262207    2.516e-03    0.006263    0.000000    0.000000    0.000000
     4        -0.102212148193038    4.907e-04    0.006256    0.000000    0.000000    0.000000
     5        -0.102207939760467    7.348e-05    0.006251    0.000000    0.000000    0.000000
     6        -0.102209112025500    2.226e-05    0.006249    0.000000    0.000000    0.000000
     7        -0.102209015979875    6.559e-06    0.006249    0.000000    0.000000    0.000000
     8        -0.102208948465637    1.463e-06    0.006249    0.000000    0.000000    0.000000
     9        -0.102208965460236    2.541e-07    0.006249    0.000000    0.000000    0.000000
    10        -0.102208965446855    4.469e-08    0.006249    0.000000    0.000000    0.000000
    10        -0.102208965446855    4.469e-08    0.006249    0.000000    0.000000    0.000000

    Iterations converged.

    CCSD corr. energy   =   -0.102208965446855
    PPL corr. energy    =    0.032255106114950
    OS PPL corr. energy =    0.026193089183370
    SS PPL corr. energy =    0.006062016931580
    Largest TIA Amplitudes:
              0   5         0.0056098307
              1  26         0.0040895196
              2  33         0.0040895196
              3  40         0.0040895196
              0   0        -0.0037645786
              1  25        -0.0015247640
              2  32        -0.0015247640
              3  39        -0.0015247640
              1  31        -0.0013606911
              2  38        -0.0013606911

    Largest Tia Amplitudes:
              0   0         0.0081815647
              0   3        -0.0042151784
              0   8        -0.0010716947

    Largest TIJAB Amplitudes:
      3   2  12   3         0.0366554808
      2   1  20   4        -0.0319654900
      3   1  16   4        -0.0315236650
      3   2  11   2         0.0306555827
      3   2  12   2         0.0293489855
      3   2  11   3         0.0293471190
      3   1  15   1        -0.0266136901
      2   1  19   1        -0.0264833366
      2   1  19   4        -0.0255922176
      3   1  16   1        -0.0254793658

    Largest TIjAb Amplitudes:
      1   0   4  25        -0.0515843952
      1   0   4  26        -0.0464094114
      3   0   3  41        -0.0449842816
      1   0  16  41        -0.0446766417
      1   0  20  33        -0.0446766417
      2   0  12  41        -0.0446766417
      2   0  20  25        -0.0446766417

      * MP2 total energy                      = -340.800926363461713
      * CCSD total energy                     = -340.818700515443084
*** Psi4 exiting successfully. Buy a developer a beer!
