                               Psi4 1.4a3.dev88

  ==> Input File <==

--------------------------------------------------------------------------
# Any line starting with the # character is a comment line
memory 250000 mb
molecule molecule{
1 2
O          0.0000000000        0.0000000000        0.5838312771
O          0.0000000000        0.0000000000       -0.5838312771
}

set {
  reference uhf
  basis aug-cc-pV(5+d)Z
  scf_type OUT_OF_CORE
  freeze_core true
}

energy('ccsd(t)')
--------------------------------------------------------------------------

    Molecular point group: d2h

    Geometry (in Angstrom), charge = 1, multiplicity = 2:

       Center              X                  Y                   Z               Mass
    ------------   -----------------  -----------------  -----------------  -----------------
         O            0.000000000000     0.000000000000     0.583831277100    15.994914619570
         O            0.000000000000     0.000000000000    -0.583831277100    15.994914619570

  Charge       = 1
  Multiplicity = 2
  Basis Set: AUG-CC-PV(5+D)Z
    Blend: AUG-CC-PV(5+D)Z

    Orbital Energies [Eh]
    ---------------------

    Alpha Occupied:

       1Ag   -21.289878     1B1u  -21.288667     2Ag    -2.204002
       2B1u   -1.594737     1B3u   -1.327433     3Ag    -1.233107
       1B2u   -1.142513     1B2g   -1.012202

    Alpha Virtual:

       1B3g   -0.415489     4Ag    -0.113169     3B1u   -0.093838
       2B3u   -0.083038     2B2u   -0.082648     5Ag    -0.031002
       2B2g   -0.020569     2B3g   -0.018370     4B1u    0.031014
       6Ag     0.107704     1B1g    0.107797     5B1u    0.116298
       7Ag     0.178161     3B3u    0.194607     3B2u    0.200384
       6B1u    0.254508     1Au     0.254576     3B2g    0.256699
       4B3u    0.259981     4B2u    0.260525     3B3g    0.269128
       8Ag     0.272264     7B1u    0.294614     8B1u    0.373258
       4B2g    0.382715     4B3g    0.384130     9Ag     0.538897
       5B2u    0.619572     5B3u    0.619573     2B1g    0.724250
      10Ag     0.724610     6B3u    0.812645     6B2u    0.818737
       2Au     0.836693     9B1u    0.836694     5B3g    0.856424
       5B2g    0.856425    10B1u    0.886082    11Ag     0.886893
       3B1g    0.887050    12Ag     0.921666    11B1u    0.985493
       6B3g    0.996450     6B2g    0.999346    13Ag     1.029035
       7B2u    1.154584     7B3u    1.154591     7B2g    1.170577
       8B3u    1.195090     7B3g    1.195968     8B2u    1.223390
       3Au     1.325665    12B1u    1.325710    13B1u    1.372194
      14B1u    2.011611     8B2g    2.016105     8B3g    2.019670
      14Ag     2.032868     4B1g    2.091735    15Ag     2.091735
       9B3u    2.202240     9B2u    2.202242    16Ag     2.259675
       5B1g    2.302713    17Ag     2.303215    10B3u    2.453240
      10B2u    2.456440    11B3u    2.472425    11B2u    2.472557
      15B1u    2.492825     4Au     2.492826    16B1u    2.516216
       5Au     2.517952    17B1u    2.527198     9B2g    2.541238
       9B3g    2.541239    12B2u    2.546226    12B3u    2.552978
      18Ag     2.618721     6B1g    2.618886    19Ag     2.666515
       6Au     2.863392    18B1u    2.863628    20Ag     2.867249
      10B3g    2.872334    10B2g    2.880439    11B2g    2.945925
      11B3g    2.954199    12B3g    3.113302    12B2g    3.113304
       7B1g    3.139399    21Ag     3.139518    19B1u    3.250632
      13B3u    3.731823    13B2u    3.741932    20B1u    4.024407
       7Au     4.135183    21B1u    4.135725    22Ag     4.322454
      22B1u    4.388561    13B2g    4.429468    13B3g    4.438100
      14B3u    4.895287    14B2u    4.896379    23Ag     5.141801
      14B2g    5.272501    14B3g    5.277842     8B1g    5.466986
      24Ag     5.466986    15B2u    5.535788    15B3u    5.535788
      16B2u    5.871319    16B3u    5.871322    15B3g    5.963418
      15B2g    5.963418    25Ag     6.091898     9B1g    6.091960
      17B2u    6.157445    17B3u    6.170608    23B1u    6.457137
      26Ag     6.470847    10B1g    6.470847     8Au     6.538889
      24B1u    6.538980    27Ag     6.549661    25B1u    6.623745
       9Au     6.623746    26B1u    6.652797    18B2u    6.659610
      18B3u    6.673128    19B2u    6.689229    19B3u    6.690259
      28Ag     6.732672    11B1g    6.733396    16B3g    6.736673
      16B2g    6.736708    17B3g    6.809948    10Au     6.810210
      27B1u    6.810210    29Ag     6.818564    17B2g    6.822760
      20B2u    6.895757    20B3u    6.895758    11Au     7.030044
      28B1u    7.030216    18B3g    7.075577    18B2g    7.075579
      19B3g    7.332762    19B2g    7.349376    30Ag     7.691860
      21B2u    7.755876    21B3u    7.760354    12B1g    7.776084
      31Ag     7.776147    29B1u    8.158106    12Au     8.158186
      13B1g    8.237037    32Ag     8.237297    20B3g    8.261634
      20B2g    8.261635    30B1u    8.466484    31B1u    8.906547
      21B3g    9.129978    21B2g    9.141108    33Ag     9.365245
      22B2u   10.244233    22B3u   10.257916    32B1u   10.326022
      13Au    10.445975    33B1u   10.446085    22B3g   11.334985
      22B2g   11.345764    34Ag    12.521092    34B1u   13.554540
      35Ag    15.186613    14B1g   15.187424    23B2u   15.192096
      23B3u   15.201516    24B2u   15.343868    24B3u   15.343876
      36Ag    15.434179    25B2u   15.501418    25B3u   15.516513
      15B1g   15.516721    37Ag    15.516723    26B2u   15.588027
      26B3u   15.588027    23B3g   15.749585    23B2g   15.749585
      24B3g   15.988253    24B2g   15.995759    35B1u   16.076559
      14Au    16.076559    38Ag    16.782321    36B1u   16.808835
      25B3g   16.835707    25B2g   16.835724    26B3g   17.070285
      26B2g   17.091707    15Au    17.372319    37B1u   17.372668
      38B1u   18.180666    27B2u   18.408719    27B3u   18.408720
      39Ag    18.415323    16B1g   18.415324    40Ag    18.454755
      16Au    18.558635    39B1u   18.558635    28B2u   18.586220
      28B3u   18.586222    17B1g   18.632463    41Ag    18.632512
      27B3g   18.682546    27B2g   18.682547    28B3g   18.920270
      28B2g   18.920278    18B1g   18.971130    42Ag    18.971637
      40B1u   19.022775    17Au    19.022804    29B2u   19.196536
      29B3u   19.218724    29B3g   19.355402    29B2g   19.379182
      30B2u   19.565471    30B3u   19.586085    41B1u   19.890059
      18Au    20.065120    42B1u   20.065804    43Ag    20.415533
      19B1g   21.428443    44Ag    21.428480    43B1u   22.277043
      19Au    22.399177    44B1u   22.399581    30B3g   22.644075
      30B2g   22.662432    31B2u   22.731054    31B3u   22.746795
      31B3g   24.072803    31B2g   24.091667    45B1u   24.997266
      45Ag    25.545263    46Ag    63.071645    46B1u   65.779886

    Beta Occupied:

       1Ag   -21.260602     1B1u  -21.259060     2Ag    -2.141107
       2B1u   -1.487210     3Ag    -1.199662     1B2u   -1.122230
       1B3u   -1.068804

    Beta Virtual:

       1B3g   -0.388944     1B2g   -0.332067     4Ag    -0.112010
       3B1u   -0.090580     2B2u   -0.082214     2B3u   -0.078484
       5Ag    -0.031399     2B3g   -0.017735     2B2g   -0.014932
       4B1u    0.043195     6Ag     0.107688     1B1g    0.107699
       5B1u    0.138282     7Ag     0.176951     3B2u    0.201975
       3B3u    0.211195     6B1u    0.256006     1Au     0.256027
       4B2u    0.260438     4B3u    0.266840     3B3g    0.271480
       8Ag     0.276247     3B2g    0.280002     7B1u    0.303575
       8B1u    0.378622     4B3g    0.384854     4B2g    0.389599
       9Ag     0.539356     5B2u    0.619104     5B3u    0.619105
       2B1g    0.727431    10Ag     0.727611     6B2u    0.818096
       6B3u    0.830674     9B1u    0.844444     2Au     0.844784
       5B3g    0.857371     5B2g    0.857373    10B1u    0.892395
      11Ag     0.892406     3B1g    0.893378    12Ag     0.924467
      11B1u    0.987981     6B3g    0.996261     6B2g    1.002777
      13Ag     1.034181     7B2u    1.155023     7B3u    1.168316
       7B3g    1.201240     7B2g    1.223373     8B2u    1.229606
       8B3u    1.256454    12B1u    1.340517     3Au     1.341429
      13B1u    1.379896    14B1u    2.020531     8B3g    2.022271
      14Ag     2.038779     8B2g    2.041615     4B1g    2.092038
      15Ag     2.092038     9B2u    2.202552     9B3u    2.202555
      16Ag     2.270643     5B1g    2.307108    17Ag     2.307585
      10B2u    2.459130    10B3u    2.477838    11B2u    2.478546
      11B3u    2.484100    15B1u    2.495024     4Au     2.495028
      16B1u    2.516959     5Au     2.521013    17B1u    2.531727
      12B2u    2.547178     9B3g    2.549844     9B2g    2.549847
      12B3u    2.562484    18Ag     2.637507     6B1g    2.640176
      19Ag     2.688198    20Ag     2.869557    10B3g    2.872040
      10B2g    2.883629    18B1u    2.903875     6Au     2.904149
      11B3g    2.957892    11B2g    2.984175    12B3g    3.117440
      12B2g    3.117449     7B1g    3.157444    21Ag     3.158093
      19B1u    3.264209    13B2u    3.746644    13B3u    3.775266
      20B1u    4.030706     7Au     4.147326    21B1u    4.149082
      22Ag     4.341209    22B1u    4.402987    13B3g    4.446504
      13B2g    4.483472    14B2u    4.904683    14B3u    4.944700
      23Ag     5.156695    14B3g    5.285200    14B2g    5.321427
       8B1g    5.467666    24Ag     5.467666    15B2u    5.538966
      15B3u    5.538966    16B2u    5.872642    16B3u    5.872649
      15B3g    5.967829    15B2g    5.967829    25Ag     6.098804
       9B1g    6.098943    17B2u    6.158858    17B3u    6.181666
      23B1u    6.466857    26Ag     6.483216    10B1g    6.483216
       8Au     6.549181    24B1u    6.551158    27Ag     6.556183
       9Au     6.631718    25B1u    6.631723    18B2u    6.659788
      26B1u    6.660631    18B3u    6.680007    19B2u    6.698437
      19B3u    6.700915    28Ag     6.738493    11B1g    6.740732
      16B3g    6.747330    16B2g    6.747516    17B3g    6.811674
      10Au     6.818835    27B1u    6.818835    29Ag     6.826440
      17B2g    6.838519    20B2u    6.922824    20B3u    6.922829
      11Au     7.053444    28B1u    7.054535    18B3g    7.100371
      18B2g    7.100391    19B3g    7.334209    19B2g    7.357928
      30Ag     7.699460    21B2u    7.761032    21B3u    7.796471
      12B1g    7.826473    31Ag     7.826975    29B1u    8.184296
      12Au     8.185726    13B1g    8.247471    32Ag     8.248235
      20B3g    8.267650    20B2g    8.267654    30B1u    8.488480
      31B1u    8.915984    21B3g    9.136672    21B2g    9.174805
      33Ag     9.378841    22B2u   10.249268    22B3u   10.283642
      32B1u   10.336474    13Au    10.466178    33B1u   10.466661
      22B3g   11.339756    22B2g   11.374745    34Ag    12.545107
      34B1u   13.572625    35Ag    15.191914    14B1g   15.193297
      23B2u   15.198942    23B3u   15.238977    24B2u   15.351766
      24B3u   15.352098    36Ag    15.439865    25B2u   15.507030
      15B1g   15.527965    37Ag    15.527969    25B3u   15.543859
      26B2u   15.603235    26B3u   15.603235    23B3g   15.764634
      23B2g   15.764634    24B3g   15.998131    24B2g   16.045934
      35B1u   16.087982    14Au    16.087982    38Ag    16.796916
      36B1u   16.816549    25B3g   16.844980    25B2g   16.845032
      26B3g   17.073012    26B2g   17.107703    15Au    17.381618
      37B1u   17.382404    38B1u   18.193821    27B2u   18.433115
      27B3u   18.433120    39Ag    18.441106    16B1g   18.441110
      40Ag    18.465908    16Au    18.584300    39B1u   18.584300
      28B2u   18.615618    28B3u   18.615635    17B1g   18.655627
      41Ag    18.655949    27B3g   18.716256    27B2g   18.716259
      28B3g   18.939419    28B2g   18.939454    18B1g   18.986787
      42Ag    18.988249    17Au    19.039277    40B1u   19.039325
      29B2u   19.201031    29B3u   19.241458    29B3g   19.360681
      29B2g   19.398398    30B2u   19.571916    30B3u   19.612070
      41B1u   19.900708    18Au    20.085545    42B1u   20.087738
      43Ag    20.428488    19B1g   21.463554    44Ag    21.463820
      43B1u   22.287014    19Au    22.430749    44B1u   22.433623
      30B3g   22.650213    30B2g   22.690062    31B2u   22.736942
      31B3u   22.776448    31B3g   24.077494    31B2g   24.115581
      45B1u   25.005684    45Ag    25.553311    46Ag    63.083741
      46B1u   65.790932

    Final Occupation by Irrep:
             Ag   B1g   B2g   B3g    Au   B1u   B2u   B3u
    DOCC [     3,    0,    0,    0,    0,    2,    1,    1 ]
    SOCC [     0,    0,    1,    0,    0,    0,    0,    0 ]

  @UHF Final Energy:  -149.22064932151628

   => Energetics <=

    Nuclear Repulsion Energy =             29.0043911753970001
    One-Electron Energy =                -255.8188653876395620
    Two-Electron Energy =                  77.5938248907262960
    Total Energy =                       -149.2206493215162766

  UHF NO Occupations:
  HONO-2 :    2B1u 1.9987623
  HONO-1 :    1B3u 1.9943964
  HONO-0 :    1B2g 1.0000000
  LUNO+0 :    2B3u 0.0056036
  LUNO+1 :    3B1u 0.0012377
  LUNO+2 :    4 Ag 0.0005107
  LUNO+3 :    2B2u 0.0000859

Computation Completed

Properties will be evaluated at   0.000000,   0.000000,   0.000000 [a0]

Properties computed using the SCF density matrix

  Nuclear Dipole Moment: [e a0]
     X:     0.0000      Y:     0.0000      Z:     0.0000

  Electronic Dipole Moment: [e a0]
     X:     0.0000      Y:     0.0000      Z:     0.0000

  Dipole Moment: [e a0]
     X:     0.0000      Y:     0.0000      Z:     0.0000     Total:     0.0000

  Dipole Moment: [D]
     X:     0.0000      Y:     0.0000      Z:     0.0000     Total:     0.0000

*** tstop() called on n412-045.vsc4.prov at Fri Jan 22 03:45:27 2021
Module time:
	user time   =     135.59 seconds =       2.26 minutes
	system time =       7.67 seconds =       0.13 minutes
	total time  =        105 seconds =       1.75 minutes
Total time:
	user time   =     135.59 seconds =       2.26 minutes
	system time =       7.67 seconds =       0.13 minutes
	total time  =        105 seconds =       1.75 minutes

*** tstart() called on n412-045.vsc4.prov
*** at Fri Jan 22 03:45:27 2021

	Wfn Parameters:
	--------------------
	Wavefunction         = CCSD_T
	Number of irreps     = 8
	Number of MOs        = 254
	Number of active MOs = 252
	AO-Basis             = NONE
	Semicanonical        = false
	Reference            = UHF
	Print Level          = 1

	IRREP	# MOs	# FZDC	# DOCC	# SOCC	# VIRT	# FZVR
	-----	-----	------	------	------	------	------
	 Ag	   46	    1	    2	    0	    43	    0
	 B1g	   19	    0	    0	    0	    19	    0
	 B2g	   31	    0	    0	    1	    30	    0
	 B3g	   31	    0	    0	    0	    31	    0
	 Au	   19	    0	    0	    0	    19	    0
	 B1u	   46	    1	    1	    0	    44	    0
	 B2u	   31	    0	    1	    0	    30	    0
	 B3u	   31	    0	    1	    0	    30	    0
	Transforming integrals...
	IWL integrals will be deleted.
	(OO|OO)...
	Presorting SO-basis two-electron integrals.
	Sorting File: SO Ints (nn|nn) nbuckets = 1
	Constructing frozen core operators
	Starting AA/AB first half-transformation.
	Sorting AA/AB half-transformed integrals.
	Starting BB first half-transformation.
	Sorting BB half-transformed integrals.
	First half integral transformation complete.
	Starting AA second half-transformation.
	Starting AB second half-transformation.
	Starting BB second half-transformation.
	Two-electron integral transformation complete.
	(OO|OV)...
	Starting AA second half-transformation.
	Starting AB second half-transformation.
	Starting BB second half-transformation.
	Two-electron integral transformation complete.
	(OO|VV)...
	Starting AA second half-transformation.
	Starting AB second half-transformation.
	Starting BB second half-transformation.
	Two-electron integral transformation complete.
	(OV|OO)...
	Starting AA/AB first half-transformation.
	Sorting AA/AB half-transformed integrals.
	Starting BB first half-transformation.
	Sorting BB half-transformed integrals.
	First half integral transformation complete.
	Starting AA second half-transformation.
	Starting AB second half-transformation.
	Starting BB second half-transformation.
	Two-electron integral transformation complete.
	(OV|OV)...
	Starting AA second half-transformation.
	Starting AB second half-transformation.
	Starting BB second half-transformation.
	Two-electron integral transformation complete.
	(OV|VV)...
	Starting AA second half-transformation.
	Starting AB second half-transformation.
	Starting BB second half-transformation.
	Two-electron integral transformation complete.
	(VV|OO)...
	Starting AA/AB first half-transformation.
	Sorting AA/AB half-transformed integrals.
	Starting BB first half-transformation.
	Sorting BB half-transformed integrals.
	First half integral transformation complete.
	Starting AA second half-transformation.
	Starting AB second half-transformation.
	Starting BB second half-transformation.
	Two-electron integral transformation complete.
	(VV|OV)...
	Starting AA second half-transformation.
	Starting AB second half-transformation.
	Starting BB second half-transformation.
	Two-electron integral transformation complete.
	(VV|VV)...
	Starting AA second half-transformation.
	Starting AB second half-transformation.
	Starting BB second half-transformation.
	Two-electron integral transformation complete.
	Frozen core energy     =   -130.90613419271634

	Size of irrep 0 of <AB|CD> integrals:     15.690 (MW) /    125.516 (MB)
	Size of irrep 1 of <AB|CD> integrals:     12.131 (MW) /     97.050 (MB)
	Size of irrep 2 of <AB|CD> integrals:     14.205 (MW) /    113.643 (MB)
	Size of irrep 3 of <AB|CD> integrals:     14.387 (MW) /    115.095 (MB)
	Size of irrep 4 of <AB|CD> integrals:     12.131 (MW) /     97.050 (MB)
	Size of irrep 5 of <AB|CD> integrals:     16.671 (MW) /    133.367 (MB)
	Size of irrep 6 of <AB|CD> integrals:     14.394 (MW) /    115.155 (MB)
	Size of irrep 7 of <AB|CD> integrals:     14.205 (MW) /    113.643 (MB)
	Total:                                   113.815 (MW) /    910.520 (MB)

	Size of irrep 0 of <ab|cd> integrals:     15.928 (MW) /    127.425 (MB)
	Size of irrep 1 of <ab|cd> integrals:     12.348 (MW) /     98.786 (MB)
	Size of irrep 2 of <ab|cd> integrals:     14.531 (MW) /    116.251 (MB)
	Size of irrep 3 of <ab|cd> integrals:     14.531 (MW) /    116.251 (MB)
	Size of irrep 4 of <ab|cd> integrals:     12.341 (MW) /     98.729 (MB)
	Size of irrep 5 of <ab|cd> integrals:     16.917 (MW) /    135.334 (MB)
	Size of irrep 6 of <ab|cd> integrals:     14.539 (MW) /    116.312 (MB)
	Size of irrep 7 of <ab|cd> integrals:     14.539 (MW) /    116.312 (MB)
	Total:                                   115.675 (MW) /    925.399 (MB)

	Size of irrep 0 of <Ab|Cd> integrals:     67.207 (MW) /    537.658 (MB)
	Size of irrep 1 of <Ab|Cd> integrals:     48.958 (MW) /    391.664 (MB)
	Size of irrep 2 of <Ab|Cd> integrals:     57.472 (MW) /    459.772 (MB)
	Size of irrep 3 of <Ab|Cd> integrals:     57.836 (MW) /    462.688 (MB)
	Size of irrep 4 of <Ab|Cd> integrals:     48.944 (MW) /    391.552 (MB)
	Size of irrep 5 of <Ab|Cd> integrals:     67.174 (MW) /    537.395 (MB)
	Size of irrep 6 of <Ab|Cd> integrals:     57.866 (MW) /    462.932 (MB)
	Size of irrep 7 of <Ab|Cd> integrals:     57.487 (MW) /    459.894 (MB)
	Total:                                   462.944 (MW) /   3703.555 (MB)

	Size of irrep 0 of <IA|BC> integrals:      1.797 (MW) /     14.376 (MB)
	Size of irrep 1 of <IA|BC> integrals:      1.031 (MW) /      8.248 (MB)
	Size of irrep 2 of <IA|BC> integrals:      1.477 (MW) /     11.820 (MB)
	Size of irrep 3 of <IA|BC> integrals:      1.320 (MW) /     10.560 (MB)
	Size of irrep 4 of <IA|BC> integrals:      1.031 (MW) /      8.248 (MB)
	Size of irrep 5 of <IA|BC> integrals:      1.813 (MW) /     14.503 (MB)
	Size of irrep 6 of <IA|BC> integrals:      1.305 (MW) /     10.441 (MB)
	Size of irrep 7 of <IA|BC> integrals:      1.477 (MW) /     11.820 (MB)
	Total:                                    11.252 (MW) /     90.014 (MB)

	Size of irrep 0 of <ia|bc> integrals:      1.564 (MW) /     12.508 (MB)
	Size of irrep 1 of <ia|bc> integrals:      0.822 (MW) /      6.578 (MB)
	Size of irrep 2 of <ia|bc> integrals:      1.182 (MW) /      9.454 (MB)
	Size of irrep 3 of <ia|bc> integrals:      1.182 (MW) /      9.454 (MB)
	Size of irrep 4 of <ia|bc> integrals:      0.836 (MW) /      6.689 (MB)
	Size of irrep 5 of <ia|bc> integrals:      1.588 (MW) /     12.701 (MB)
	Size of irrep 6 of <ia|bc> integrals:      1.167 (MW) /      9.334 (MB)
	Size of irrep 7 of <ia|bc> integrals:      1.167 (MW) /      9.334 (MB)
	Total:                                     9.506 (MW) /     76.052 (MB)

	Size of irrep 0 of <Ia|Bc> integrals:      1.812 (MW) /     14.494 (MB)
	Size of irrep 1 of <Ia|Bc> integrals:      1.036 (MW) /      8.284 (MB)
	Size of irrep 2 of <Ia|Bc> integrals:      1.501 (MW) /     12.008 (MB)
	Size of irrep 3 of <Ia|Bc> integrals:      1.323 (MW) /     10.586 (MB)
	Size of irrep 4 of <Ia|Bc> integrals:      1.042 (MW) /      8.339 (MB)
	Size of irrep 5 of <Ia|Bc> integrals:      1.828 (MW) /     14.622 (MB)
	Size of irrep 6 of <Ia|Bc> integrals:      1.308 (MW) /     10.467 (MB)
	Size of irrep 7 of <Ia|Bc> integrals:      1.494 (MW) /     11.949 (MB)
	Total:                                    11.344 (MW) /     90.750 (MB)

	Size of irrep 0 of <iA|bC> integrals:      1.558 (MW) /     12.461 (MB)
	Size of irrep 1 of <iA|bC> integrals:      0.819 (MW) /      6.549 (MB)
	Size of irrep 2 of <iA|bC> integrals:      1.160 (MW) /      9.279 (MB)
	Size of irrep 3 of <iA|bC> integrals:      1.179 (MW) /      9.430 (MB)
	Size of irrep 4 of <iA|bC> integrals:      0.826 (MW) /      6.604 (MB)
	Size of irrep 5 of <iA|bC> integrals:      1.574 (MW) /     12.589 (MB)
	Size of irrep 6 of <iA|bC> integrals:      1.164 (MW) /      9.311 (MB)
	Size of irrep 7 of <iA|bC> integrals:      1.152 (MW) /      9.220 (MB)

      * MP2 total energy                      = -149.743734119428950
      * CCSD total energy                     = -149.716683352896808
      * CCSD(T) total energy                     = -149.743300003059403
*** Psi4 exiting successfully. Buy a developer a beer!
