                               Psi4 1.2a1.dev938

  ==> Input File <==

--------------------------------------------------------------------------
# Any line starting with the # character is a comment line
memory 250000 mb
molecule molecule{
0 2
F          0.0000000000        0.0000000000        0.0000000000
}

set {
  reference uhf
  basis aug-cc-pv(6+d)z
  scf_type OUT_OF_CORE
  freeze_core true
}

energy('ccsd')
--------------------------------------------------------------------------

    Molecular point group: d2h
    Geometry (in Angstrom), charge = 0, multiplicity = 2:

       Center              X                  Y                   Z               Mass
    ------------   -----------------  -----------------  -----------------  -----------------
           F          0.000000000000     0.000000000000     0.000000000000    18.998403224000

  Charge       = 0
  Multiplicity = 2
  Basis Set: AUG-CC-PV(6+D)Z
    Blend: AUG-CC-PV(6+D)Z

    Orbital Energies (a.u.)
    -----------------------

    Alpha Occupied:

       1Ag   -26.406618     2Ag    -1.672403     1B2u   -0.845354
       1B3u   -0.731600     1B1u   -0.731600

    Alpha Virtual:

       2B2u    0.105005     2B3u    0.109232     2B1u    0.109232
       3Ag     0.128524     3B2u    0.435101     4Ag     0.448069
       1B3g    0.450633     1B1g    0.450633     3B3u    0.452147
       3B1u    0.452147     5Ag     0.458546     1B2g    0.458546
       6Ag     0.725434     4B2u    1.084537     4B1u    1.086315
       4B3u    1.086315     5B2u    1.091597     1Au     1.091597
       5B1u    1.100412     5B3u    1.100412     6B2u    1.343109
       7Ag     1.345921     2B3g    1.354381     2B1g    1.354381
       2B2g    1.381356     8Ag     1.381356     6B3u    1.383597
       6B1u    1.383597     9Ag     2.577368     3B3g    2.579065
       3B1g    2.579065    10Ag     2.584174     3B2g    2.584174
       4B1g    2.592767     4B3g    2.592767    11Ag     2.601480
       4B2g    2.604981    12Ag     2.604981     7B2u    3.060871
       7B1u    3.065889     7B3u    3.065889     8B2u    3.080788
       2Au     3.080788     8B1u    3.105542     8B3u    3.105542
      13Ag     3.267835     5B1g    3.283826     5B3g    3.283826
       5B2g    3.334548    14Ag     3.334548     9B2u    3.656490
       9B3u    3.723641     9B1u    3.723641    10B2u    5.751642
      10B1u    5.753444    10B3u    5.753444     3Au     5.758864
      11B2u    5.758864    11B3u    5.767933    11B1u    5.767933
      12B2u    5.780708     4Au     5.780708    12B3u    5.797271
      12B1u    5.797271    15Ag     6.784060     6B3g    6.788000
       6B1g    6.788000    16Ag     6.799853     6B2g    6.799853
       7B3g    6.819733     7B1g    6.819733    17Ag     6.847861
       7B2g    6.847861    13B2u    7.244185    13B3u    7.253060
      13B1u    7.253060     5Au     7.279693    14B2u    7.279693
      14B1u    7.324238    14B3u    7.324238    18Ag     7.628524
       8B1g    7.649990     8B3g    7.649990     8B2g    7.716740
      19Ag     7.716740    20Ag     7.990944    15B2u    9.428996
      15B3u    9.516099    15B1u    9.516099    21Ag    12.030311
       9B3g   12.032205     9B1g   12.032205     9B2g   12.037896
      22Ag    12.037896    10B1g   12.047401    10B3g   12.047401
      23Ag    12.060754    10B2g   12.060754    11B1g   12.077999
      11B3g   12.077999    24Ag    12.099196    11B2g   12.099196
      16B2u   13.916054    16B3u   13.919397    16B1u   13.919397
       6Au    13.929442    17B2u   13.929442    17B3u   13.946243
      17B1u   13.946243    18B2u   13.969889     7Au    13.969889
      18B1u   14.000510    18B3u   14.000510    25Ag    16.319880
      12B1g   16.326194    12B3g   16.326194    12B2g   16.345167
      26Ag    16.345167    13B3g   16.376895    13B1g   16.376895
      27Ag    16.421564    13B2g   16.421564    19B2u   16.599967
      19B3u   16.611483    19B1u   16.611483     8Au    16.646128
      20B2u   16.646128    20B1u   16.704209    20B3u   16.704209
      28Ag    18.063798    14B1g   18.087574    14B3g   18.087574
      29Ag    18.160516    14B2g   18.160516    30Ag    25.055289
      21B2u   27.732232    21B3u   27.807480    21B1u   27.807480
      31Ag    29.209364    15B1g   29.212341    15B3g   29.212341
      15B2g   29.221278    32Ag    29.221278    16B3g   29.236200
      16B1g   29.236200    33Ag    29.257145    16B2g   29.257145
      17B3g   29.284168    17B1g   29.284168    17B2g   29.317341
      34Ag    29.317341    22B2u   34.861363    22B3u   34.866019
      22B1u   34.866019     9Au    34.880000    23B2u   34.880000
      23B1u   34.903351    23B3u   34.903351    24B2u   34.936143
      10Au    34.936143    24B1u   34.978480    24B3u   34.978480
      25B2u   39.088959    25B3u   39.100305    25B1u   39.100305
      11Au    39.134413    26B2u   39.134413    26B1u   39.191508
      26B3u   39.191508    35Ag    40.125001    18B1g   40.132085
      18B3g   40.132085    18B2g   40.153361    36Ag    40.153361
      19B3g   40.188905    19B1g   40.188905    37Ag    40.238848
      19B2g   40.238848    38Ag    43.864790    20B1g   43.885528
      20B3g   43.885528    39Ag    43.948493    20B2g   43.948493
      40Ag   127.141935

    Beta Occupied:

       1Ag   -26.358783     2Ag    -1.476888     1B1u   -0.679849
       1B3u   -0.679849

    Beta Virtual:

       1B2u    0.032659     2B1u    0.109866     2B3u    0.109866
       3Ag     0.132219     2B2u    0.135716     4Ag     0.453777
       1B1g    0.454626     1B3g    0.454626     3B1u    0.456549
       3B3u    0.456549     1B2g    0.457563     5Ag     0.457563
       3B2u    0.504235     6Ag     0.743111     4B2u    1.088059
       4B3u    1.089337     4B1u    1.089337     1Au     1.093163
       5B2u    1.093163     5B1u    1.099524     5B3u    1.099524
       2B2g    1.381252     7Ag     1.381252     2B1g    1.388240
       2B3g    1.388240     8Ag     1.391186     6B1u    1.394926
       6B3u    1.394926     6B2u    1.450770     9Ag     2.582345
       3B1g    2.583687     3B3g    2.583687     3B2g    2.587719
      10Ag     2.587719     4B3g    2.594461     4B1g    2.594461
       4B2g    2.603927    11Ag     2.603927    12Ag     2.637849
       7B2u    3.084427     7B3u    3.086734     7B1u    3.086734
       2Au     3.093598     8B2u    3.093598     8B1u    3.104879
       8B3u    3.104879     5B2g    3.343289    13Ag     3.343289
       5B3g    3.358040     5B1g    3.358040    14Ag     3.363944
       9B1u    3.740886     9B3u    3.740886     9B2u    3.776235
      10B2u    5.759604    10B3u    5.761059    10B1u    5.761059
       3Au     5.765428    11B2u    5.765428    11B1u    5.772726
      11B3u    5.772726    12B2u    5.782975     4Au     5.782975
      12B3u    5.796209    12B1u    5.796209    15Ag     6.806303
       6B1g    6.808895     6B3g    6.808895     6B2g    6.816670
      16Ag     6.816670     7B3g    6.829621     7B1g    6.829621
      17Ag     6.847711     7B2g    6.847711    13B2u    7.296811
      13B1u    7.300349    13B3u    7.300349    14B2u    7.310915
       5Au     7.310915    14B1u    7.328377    14B3u    7.328377
       8B2g    7.732083    18Ag     7.732083    19Ag     7.732943
       8B3g    7.733000     8B1g    7.733000    20Ag     8.036477
      15B1u    9.536438    15B3u    9.536438    15B2u    9.537124
      21Ag    12.041935     9B1g   12.043494     9B3g   12.043494
       9B2g   12.048176    22Ag    12.048176    10B1g   12.055992
      10B3g   12.055992    23Ag    12.066958    10B2g   12.066958
      11B1g   12.081100    11B3g   12.081100    24Ag    12.098452
      11B2g   12.098452    16B2u   13.938368    16B1u   13.940857
      16B3u   13.940857     6Au    13.948332    17B2u   13.948332
      17B3u   13.960815    17B1u   13.960815    18B2u   13.978345
       7Au    13.978345    18B1u   14.000976    18B3u   14.000976
      25Ag    16.362113    12B3g   16.366069    12B1g   16.366069
      12B2g   16.377936    26Ag    16.377936    13B3g   16.397715
      13B1g   16.397715    27Ag    16.425398    13B2g   16.425398
      19B2u   16.663895    19B1u   16.669358    19B3u   16.669358
      20B2u   16.685749     8Au    16.685749    20B1u   16.713084
      20B3u   16.713084    28Ag    18.146716    14B3g   18.153807
      14B1g   18.153807    29Ag    18.175448    14B2g   18.175448
      30Ag    25.089787    21B2u   27.804380    21B1u   27.823019
      21B3u   27.823019    31Ag    29.232683    15B3g   29.235056
      15B1g   29.235056    15B2g   29.242182    32Ag    29.242182
      16B3g   29.254075    16B1g   29.254075    33Ag    29.270759
      16B2g   29.270759    17B1g   29.292269    17B3g   29.292269
      17B2g   29.318650    34Ag    29.318650    22B2u   34.896199
      22B1u   34.899621    22B3u   34.899621     9Au    34.909893
      23B2u   34.909893    23B3u   34.927041    23B1u   34.927041
      24B2u   34.951104    10Au    34.951104    24B1u   34.982138
      24B3u   34.982138    25B2u   39.140798    25B1u   39.147386
      25B3u   39.147386    11Au    39.167176    26B2u   39.167176
      26B1u   39.200253    26B3u   39.200253    35Ag    40.168993
      18B3g   40.173737    18B1g   40.173737    36Ag    40.187979
      18B2g   40.187979    19B3g   40.211750    19B1g   40.211750
      37Ag    40.245100    19B2g   40.245100    38Ag    43.916016
      20B3g   43.926619    20B1g   43.926619    39Ag    43.958714
      20B2g   43.958714    40Ag   127.154147

    Final Occupation by Irrep:
             Ag   B1g   B2g   B3g    Au   B1u   B2u   B3u
    DOCC [     2,    0,    0,    0,    0,    1,    0,    1 ]
    SOCC [     0,    0,    0,    0,    0,    0,    1,    0 ]

  Energy converged.

  @UHF Final Energy:   -99.41627850903203

   => Energetics <=

    Nuclear Repulsion Energy =              0.0000000000000000
    One-Electron Energy =                -139.2496144144321875
    Two-Electron Energy =                  39.8333359054001619
    PCM Polarization Energy =               0.0000000000000000
    Total Energy =                        -99.4162785090320256

    Alert: EFP and PCM quantities not currently incorporated into SCF psivars.
  UHF NO Occupations:
  HONO-2 :    1B3u 1.9996554
  HONO-1 :    2 Ag 1.9985826
  HONO-0 :    1B2u 1.0000000
  LUNO+0 :    3 Ag 0.0014174
  LUNO+1 :    2B3u 0.0003446
  LUNO+2 :    2B1u 0.0003446
  LUNO+3 :    4 Ag 0.0000012

Properties will be evaluated at   0.000000,   0.000000,   0.000000 Bohr

Properties computed using the SCF density matrix

  Nuclear Dipole Moment: (a.u.)
     X:     0.0000      Y:     0.0000      Z:     0.0000

  Electronic Dipole Moment: (a.u.)
     X:     0.0000      Y:     0.0000      Z:     0.0000

  Dipole Moment: (a.u.)
     X:     0.0000      Y:     0.0000      Z:     0.0000     Total:     0.0000

  Dipole Moment: (Debye)
     X:     0.0000      Y:     0.0000      Z:     0.0000     Total:     0.0000

*** tstop() called on cqc05 at Wed Aug 26 09:26:26 2020
Module time:
	user time   =      39.67 seconds =       0.66 minutes
	system time =       0.83 seconds =       0.01 minutes
	total time  =         40 seconds =       0.67 minutes
Total time:
	user time   =      39.67 seconds =       0.66 minutes
	system time =       0.83 seconds =       0.01 minutes
	total time  =         40 seconds =       0.67 minutes

*** tstart() called on cqc05
*** at Wed Aug 26 09:26:26 2020

	Wfn Parameters:
	--------------------
	Wavefunction         = CCSD
	Number of irreps     = 8
	Number of MOs        = 189
	Number of active MOs = 188
	AO-Basis             = NONE
	Semicanonical        = false
	Reference            = UHF
	Print Level          = 1

	IRREP	# MOs	# FZDC	# DOCC	# SOCC	# VIRT	# FZVR
	-----	-----	------	------	------	------	------
	 Ag	   40	    1	    1	    0	    38	    0
	 B1g	   20	    0	    0	    0	    20	    0
	 B2g	   20	    0	    0	    0	    20	    0
	 B3g	   20	    0	    0	    0	    20	    0
	 Au	   11	    0	    0	    0	    11	    0
	 B1u	   26	    0	    1	    0	    25	    0
	 B2u	   26	    0	    0	    1	    25	    0
	 B3u	   26	    0	    1	    0	    25	    0
	Transforming integrals...
	IWL integrals will be deleted.
	(OO|OO)...
	Presorting SO-basis two-electron integrals.
	Sorting File: SO Ints (nn|nn) nbuckets = 1
	Transforming the one-electron integrals and constructing Fock matrices
	Starting AA/AB first half-transformation.
	Sorting AA/AB half-transformed integrals.
	Starting BB first half-transformation.
	Sorting BB half-transformed integrals.
	First half integral transformation complete.
	Starting AA second half-transformation.
	Starting AB second half-transformation.
	Starting BB second half-transformation.
	Two-electron integral transformation complete.
	(OO|OV)...
	Starting AA second half-transformation.
	Starting AB second half-transformation.
	Starting BB second half-transformation.
	Two-electron integral transformation complete.
	(OO|VV)...
	Starting AA second half-transformation.
	Starting AB second half-transformation.
	Starting BB second half-transformation.
	Two-electron integral transformation complete.
	(OV|OO)...
	Starting AA/AB first half-transformation.
	Sorting AA/AB half-transformed integrals.
	Starting BB first half-transformation.
	Sorting BB half-transformed integrals.
	First half integral transformation complete.
	Starting AA second half-transformation.
	Starting AB second half-transformation.
	Starting BB second half-transformation.
	Two-electron integral transformation complete.
	(OV|OV)...
	Starting AA second half-transformation.
	Starting AB second half-transformation.
	Starting BB second half-transformation.
	Two-electron integral transformation complete.
	(OV|VV)...
	Starting AA second half-transformation.
	Starting AB second half-transformation.
	Starting BB second half-transformation.
	Two-electron integral transformation complete.
	(VV|OO)...
	Starting AA/AB first half-transformation.
	Sorting AA/AB half-transformed integrals.
	Starting BB first half-transformation.
	Sorting BB half-transformed integrals.
	First half integral transformation complete.
	Starting AA second half-transformation.
	Starting AB second half-transformation.
	Starting BB second half-transformation.
	Two-electron integral transformation complete.
	(VV|OV)...
	Starting AA second half-transformation.
	Starting AB second half-transformation.
	Starting BB second half-transformation.
	Two-electron integral transformation complete.
	(VV|VV)...
	Starting AA second half-transformation.
	Starting AB second half-transformation.
	Starting BB second half-transformation.
	Two-electron integral transformation complete.
	Frozen core energy     =    -75.47959144267149

	Size of irrep 0 of <AB|CD> integrals:      4.964 (MW) /     39.712 (MB)
	Size of irrep 1 of <AB|CD> integrals:      4.244 (MW) /     33.949 (MB)
	Size of irrep 2 of <AB|CD> integrals:      4.244 (MW) /     33.949 (MB)
	Size of irrep 3 of <AB|CD> integrals:      4.244 (MW) /     33.949 (MB)
	Size of irrep 4 of <AB|CD> integrals:      3.679 (MW) /     29.430 (MB)
	Size of irrep 5 of <AB|CD> integrals:      4.709 (MW) /     37.671 (MB)
	Size of irrep 6 of <AB|CD> integrals:      4.709 (MW) /     37.671 (MB)
	Size of irrep 7 of <AB|CD> integrals:      4.709 (MW) /     37.671 (MB)
	Total:                                    35.500 (MW) /    284.002 (MB)

	Size of irrep 0 of <ab|cd> integrals:      5.076 (MW) /     40.608 (MB)
	Size of irrep 1 of <ab|cd> integrals:      4.347 (MW) /     34.778 (MB)
	Size of irrep 2 of <ab|cd> integrals:      4.289 (MW) /     34.312 (MB)
	Size of irrep 3 of <ab|cd> integrals:      4.347 (MW) /     34.778 (MB)
	Size of irrep 4 of <ab|cd> integrals:      3.756 (MW) /     30.047 (MB)
	Size of irrep 5 of <ab|cd> integrals:      4.796 (MW) /     38.369 (MB)
	Size of irrep 6 of <ab|cd> integrals:      4.875 (MW) /     39.002 (MB)
	Size of irrep 7 of <ab|cd> integrals:      4.796 (MW) /     38.369 (MB)
	Total:                                    36.283 (MW) /    290.262 (MB)

	Size of irrep 0 of <Ab|Cd> integrals:     21.762 (MW) /    174.098 (MB)
	Size of irrep 1 of <Ab|Cd> integrals:     17.181 (MW) /    137.448 (MB)
	Size of irrep 2 of <Ab|Cd> integrals:     17.065 (MW) /    136.521 (MB)
	Size of irrep 3 of <Ab|Cd> integrals:     17.181 (MW) /    137.448 (MB)
	Size of irrep 4 of <Ab|Cd> integrals:     14.869 (MW) /    118.950 (MB)
	Size of irrep 5 of <Ab|Cd> integrals:     19.010 (MW) /    152.077 (MB)
	Size of irrep 6 of <Ab|Cd> integrals:     19.167 (MW) /    153.335 (MB)
	Size of irrep 7 of <Ab|Cd> integrals:     19.010 (MW) /    152.077 (MB)
	Total:                                   145.244 (MW) /   1161.954 (MB)

	Size of irrep 0 of <IA|BC> integrals:      0.524 (MW) /      4.195 (MB)
	Size of irrep 1 of <IA|BC> integrals:      0.334 (MW) /      2.670 (MB)
	Size of irrep 2 of <IA|BC> integrals:      0.334 (MW) /      2.670 (MB)
	Size of irrep 3 of <IA|BC> integrals:      0.334 (MW) /      2.670 (MB)
	Size of irrep 4 of <IA|BC> integrals:      0.272 (MW) /      2.179 (MB)
	Size of irrep 5 of <IA|BC> integrals:      0.447 (MW) /      3.576 (MB)
	Size of irrep 6 of <IA|BC> integrals:      0.447 (MW) /      3.576 (MB)
	Size of irrep 7 of <IA|BC> integrals:      0.447 (MW) /      3.576 (MB)
	Total:                                     3.139 (MW) /     25.111 (MB)

	Size of irrep 0 of <ia|bc> integrals:      0.413 (MW) /      3.302 (MB)
	Size of irrep 1 of <ia|bc> integrals:      0.238 (MW) /      1.902 (MB)
	Size of irrep 2 of <ia|bc> integrals:      0.290 (MW) /      2.320 (MB)
	Size of irrep 3 of <ia|bc> integrals:      0.238 (MW) /      1.902 (MB)
	Size of irrep 4 of <ia|bc> integrals:      0.198 (MW) /      1.581 (MB)
	Size of irrep 5 of <ia|bc> integrals:      0.364 (MW) /      2.908 (MB)
	Size of irrep 6 of <ia|bc> integrals:      0.291 (MW) /      2.332 (MB)
	Size of irrep 7 of <ia|bc> integrals:      0.364 (MW) /      2.908 (MB)
	Total:                                     2.394 (MW) /     19.155 (MB)

	Size of irrep 0 of <Ia|Bc> integrals:      0.532 (MW) /      4.254 (MB)
	Size of irrep 1 of <Ia|Bc> integrals:      0.340 (MW) /      2.719 (MB)
	Size of irrep 2 of <Ia|Bc> integrals:      0.335 (MW) /      2.677 (MB)
	Size of irrep 3 of <Ia|Bc> integrals:      0.340 (MW) /      2.719 (MB)
	Size of irrep 4 of <Ia|Bc> integrals:      0.274 (MW) /      2.190 (MB)
	Size of irrep 5 of <Ia|Bc> integrals:      0.449 (MW) /      3.593 (MB)
	Size of irrep 6 of <Ia|Bc> integrals:      0.455 (MW) /      3.642 (MB)
	Size of irrep 7 of <Ia|Bc> integrals:      0.449 (MW) /      3.593 (MB)
	Total:                                     3.173 (MW) /     25.388 (MB)

	Size of irrep 0 of <iA|bC> integrals:      0.411 (MW) /      3.284 (MB)
	Size of irrep 1 of <iA|bC> integrals:      0.232 (MW) /      1.857 (MB)
	Size of irrep 2 of <iA|bC> integrals:      0.289 (MW) /      2.313 (MB)
	Size of irrep 3 of <iA|bC> integrals:      0.232 (MW) /      1.857 (MB)
	Size of irrep 4 of <iA|bC> integrals:      0.197 (MW) /      1.573 (MB)
	Size of irrep 5 of <iA|bC> integrals:      0.362 (MW) /      2.895 (MB)
	Size of irrep 6 of <iA|bC> integrals:      0.285 (MW) /      2.277 (MB)
	Size of irrep 7 of <iA|bC> integrals:      0.362 (MW) /      2.895 (MB)
	Total:                                     2.369 (MW) /     18.951 (MB)

	Size of irrep 0 of tIjAb amplitudes:       0.014 (MW) /      0.112 (MB)
	Size of irrep 1 of tIjAb amplitudes:       0.004 (MW) /      0.033 (MB)
	Size of irrep 2 of tIjAb amplitudes:       0.008 (MW) /      0.066 (MB)
	Size of irrep 3 of tIjAb amplitudes:       0.004 (MW) /      0.033 (MB)
	Size of irrep 4 of tIjAb amplitudes:       0.000 (MW) /      0.000 (MB)
	Size of irrep 5 of tIjAb amplitudes:       0.009 (MW) /      0.070 (MB)
	Size of irrep 6 of tIjAb amplitudes:       0.004 (MW) /      0.035 (MB)
	Size of irrep 7 of tIjAb amplitudes:       0.009 (MW) /      0.070 (MB)
	Total:                                     0.052 (MW) /      0.419 (MB)

	Nuclear Rep. energy          =      0.00000000000000
	SCF energy                   =    -99.41627850903203
	One-electron energy          =    -41.05583180298147
	Two-electron (AA) energy     =      4.51850605544954
	Two-electron (BB) energy     =      2.15083334383086
	Two-electron (AB) energy     =     10.44980533734044
	Two-electron energy          =     17.11914473662084
	Reference energy             =    -99.41627850903213

*** tstop() called on cqc05 at Wed Aug 26 09:26:44 2020
Module time:
	user time   =      11.61 seconds =       0.19 minutes
	system time =       6.13 seconds =       0.10 minutes
	total time  =         18 seconds =       0.30 minutes
Total time:
	user time   =      51.29 seconds =       0.85 minutes
	system time =       6.96 seconds =       0.12 minutes
	total time  =         58 seconds =       0.97 minutes

*** tstart() called on cqc05
*** at Wed Aug 26 09:26:44 2020

            **************************
            *                        *
            *        CCENERGY        *
            *                        *
            **************************

    Nuclear Rep. energy (wfn)     =    0.000000000000000

      * MP2 total energy                      =  -99.651865294185171
      * CCSD total energy                     =  -99.659352836832014
*** Psi4 exiting successfully. Buy a developer a beer!
