                               Psi4 1.2a1.dev938

  ==> Input File <==

--------------------------------------------------------------------------
# Any line starting with the # character is a comment line
memory 250000 mb
molecule molecule{
0 2
F          0.0000000000        0.0000000000        0.0000000000
}

set {
  reference uhf
  basis aug-cc-pv(q+d)z
  scf_type OUT_OF_CORE
  freeze_core true
}

energy('ccsd')
--------------------------------------------------------------------------

    Molecular point group: d2h
    Geometry (in Angstrom), charge = 0, multiplicity = 2:

       Center              X                  Y                   Z               Mass
    ------------   -----------------  -----------------  -----------------  -----------------
           F          0.000000000000     0.000000000000     0.000000000000    18.998403224000

  Charge       = 0
  Multiplicity = 2
  Basis Set: AUG-CC-PV(Q+D)Z
    Blend: AUG-CC-PV(Q+D)Z

    Orbital Energies (a.u.)
    -----------------------

    Alpha Occupied:

       1Ag   -26.408044     2Ag    -1.673004     1B3u   -0.845465
       1B2u   -0.731742     1B1u   -0.731742

    Alpha Virtual:

       2B3u    0.160335     2B2u    0.168306     2B1u    0.168306
       3Ag     0.169810     4Ag     0.619076     1B1g    0.623253
       1B2g    0.623253     1B3g    0.636209     5Ag     0.636209
       3B3u    0.823941     3B2u    0.860918     3B1u    0.860918
       6Ag     1.106933     4B3u    1.840670     4B1u    1.844045
       4B2u    1.844045     5B3u    1.854251     1Au     1.854251
       5B1u    1.871605     5B2u    1.871605     7Ag     1.957395
       2B1g    1.970628     2B2g    1.970628     2B3g    2.012864
       8Ag     2.012864     6B3u    3.288578     6B1u    3.366339
       6B2u    3.366339     9Ag     4.655184     3B1g    4.658434
       3B2g    4.658434     3B3g    4.668223    10Ag     4.668223
       4B1g    4.684679     4B2g    4.684679     4B3g    4.708033
      11Ag     4.708033    12Ag     4.957229     7B3u    5.398353
       7B1u    5.406441     7B2u    5.406441     8B3u    5.430912
       2Au     5.430912     8B1u    5.472533     8B2u    5.472533
      13Ag     5.597779     5B1g    5.619906     5B2g    5.619906
      14Ag     5.689801     5B3g    5.689801     9B3u   12.850097
       9B2u   12.934655     9B1u   12.934655    15Ag    13.528160
       6B2g   13.534335     6B1g   13.534335     6B3g   13.552912
      16Ag    13.552912     7B1g   13.584051     7B2g   13.584051
       7B3g   13.628035    17Ag    13.628035    10B3u   15.676741
      10B1u   15.688683    10B2u   15.688683     3Au    15.724715
      11B3u   15.724715    11B1u   15.785566    11B2u   15.785566
      18Ag    16.554988     8B1g   16.579350     8B2g   16.579350
      19Ag    16.653774     8B3g   16.653774    20Ag    52.972486

    Beta Occupied:

       1Ag   -26.359977     2Ag    -1.477482     1B2u   -0.679980
       1B1u   -0.679980

    Beta Virtual:

       1B3u    0.035278     2B2u    0.169843     2B1u    0.169843
       3Ag     0.175442     2B3u    0.209680     4Ag     0.632627
       1B1g    0.632939     1B2g    0.632939     1B3g    0.634610
       5Ag     0.634610     3B1u    0.871850     3B2u    0.871850
       3B3u    0.946630     6Ag     1.136107     4B3u    1.853065
       4B1u    1.854942     4B2u    1.854942     5B3u    1.860606
       1Au     1.860606     5B1u    1.870063     5B2u    1.870063
       2B3g    2.016550     7Ag     2.016550     2B1g    2.032920
       2B2g    2.032920     8Ag     2.039344     6B1u    3.389538
       6B2u    3.389538     6B3u    3.449974     9Ag     4.672051
       3B1g    4.674226     3B2g    4.674226    10Ag     4.680756
       3B3g    4.680756     4B1g    4.691651     4B2g    4.691651
       4B3g    4.706910    11Ag     4.706910    12Ag     5.012628
       7B3u    5.449020     7B1u    5.451941     7B2u    5.451941
       8B3u    5.460696     2Au     5.460696     8B1u    5.475232
       8B2u    5.475232    13Ag     5.706907     5B3g    5.706907
       5B1g    5.722664     5B2g    5.722664    14Ag     5.728792
       9B1u   12.957215     9B2u   12.957215     9B3u   12.972241
      15Ag    13.573479     6B2g   13.577104     6B1g   13.577104
       6B3g   13.587986    16Ag    13.587986     7B2g   13.606149
       7B1g   13.606149     7B3g   13.631623    17Ag    13.631623
      10B3u   15.754950    10B1u   15.759527    10B2u   15.759527
       3Au    15.773273    11B3u   15.773273    11B1u   15.796233
      11B2u   15.796233    18Ag    16.658161     8B1g   16.661449
       8B2g   16.661449    19Ag    16.671612     8B3g   16.671612
      20Ag    53.001099

    Final Occupation by Irrep:
             Ag   B1g   B2g   B3g    Au   B1u   B2u   B3u
    DOCC [     2,    0,    0,    0,    0,    1,    1,    0 ]
    SOCC [     0,    0,    0,    0,    0,    0,    0,    1 ]

  Energy converged.

  @UHF Final Energy:   -99.41408536589162

   => Energetics <=

    Nuclear Repulsion Energy =              0.0000000000000000
    One-Electron Energy =                -139.2407551930784564
    Two-Electron Energy =                  39.8266698271868265
    PCM Polarization Energy =               0.0000000000000000
    Total Energy =                        -99.4140853658916228

    Alert: EFP and PCM quantities not currently incorporated into SCF psivars.
  UHF NO Occupations:
  HONO-2 :    1B1u 1.9996569
  HONO-1 :    2 Ag 1.9985846
  HONO-0 :    1B3u 1.0000000
  LUNO+0 :    3 Ag 0.0014154
  LUNO+1 :    2B2u 0.0003431
  LUNO+2 :    2B1u 0.0003431
  LUNO+3 :    4 Ag 0.0000011

Properties will be evaluated at   0.000000,   0.000000,   0.000000 Bohr

Properties computed using the SCF density matrix

  Nuclear Dipole Moment: (a.u.)
     X:     0.0000      Y:     0.0000      Z:     0.0000

  Electronic Dipole Moment: (a.u.)
     X:     0.0000      Y:     0.0000      Z:     0.0000

  Dipole Moment: (a.u.)
     X:     0.0000      Y:     0.0000      Z:     0.0000     Total:     0.0000

  Dipole Moment: (Debye)
     X:     0.0000      Y:     0.0000      Z:     0.0000     Total:     0.0000

*** tstop() called on cqc05 at Thu Aug 20 22:42:16 2020
Module time:
	user time   =       1.38 seconds =       0.02 minutes
	system time =       0.05 seconds =       0.00 minutes
	total time  =          1 seconds =       0.02 minutes
Total time:
	user time   =       1.38 seconds =       0.02 minutes
	system time =       0.05 seconds =       0.00 minutes
	total time  =          1 seconds =       0.02 minutes

*** tstart() called on cqc05
*** at Thu Aug 20 22:42:16 2020

	Wfn Parameters:
	--------------------
	Wavefunction         = CCSD
	Number of irreps     = 8
	Number of MOs        = 80
	Number of active MOs = 79
	AO-Basis             = NONE
	Semicanonical        = false
	Reference            = UHF
	Print Level          = 1

	IRREP	# MOs	# FZDC	# DOCC	# SOCC	# VIRT	# FZVR
	-----	-----	------	------	------	------	------
	 Ag	   20	    1	    1	    0	    18	    0
	 B1g	   8	    0	    0	    0	    8	    0
	 B2g	   8	    0	    0	    0	    8	    0
	 B3g	   8	    0	    0	    0	    8	    0
	 Au	   3	    0	    0	    0	    3	    0
	 B1u	   11	    0	    1	    0	    10	    0
	 B2u	   11	    0	    1	    0	    10	    0
	 B3u	   11	    0	    0	    1	    10	    0
	Transforming integrals...
	IWL integrals will be deleted.
	(OO|OO)...
	Presorting SO-basis two-electron integrals.
	Sorting File: SO Ints (nn|nn) nbuckets = 1
	Transforming the one-electron integrals and constructing Fock matrices
	Starting AA/AB first half-transformation.
	Sorting AA/AB half-transformed integrals.
	Starting BB first half-transformation.
	Sorting BB half-transformed integrals.
	First half integral transformation complete.
	Starting AA second half-transformation.
	Starting AB second half-transformation.
	Starting BB second half-transformation.
	Two-electron integral transformation complete.
	(OO|OV)...
	Starting AA second half-transformation.
	Starting AB second half-transformation.
	Starting BB second half-transformation.
	Two-electron integral transformation complete.
	(OO|VV)...
	Starting AA second half-transformation.
	Starting AB second half-transformation.
	Starting BB second half-transformation.
	Two-electron integral transformation complete.
	(OV|OO)...
	Starting AA/AB first half-transformation.
	Sorting AA/AB half-transformed integrals.
	Starting BB first half-transformation.
	Sorting BB half-transformed integrals.
	First half integral transformation complete.
	Starting AA second half-transformation.
	Starting AB second half-transformation.
	Starting BB second half-transformation.
	Two-electron integral transformation complete.
	(OV|OV)...
	Starting AA second half-transformation.
	Starting AB second half-transformation.
	Starting BB second half-transformation.
	Two-electron integral transformation complete.
	(OV|VV)...
	Starting AA second half-transformation.
	Starting AB second half-transformation.
	Starting BB second half-transformation.
	Two-electron integral transformation complete.
	(VV|OO)...
	Starting AA/AB first half-transformation.
	Sorting AA/AB half-transformed integrals.
	Starting BB first half-transformation.
	Sorting BB half-transformed integrals.
	First half integral transformation complete.
	Starting AA second half-transformation.
	Starting AB second half-transformation.
	Starting BB second half-transformation.
	Two-electron integral transformation complete.
	(VV|OV)...
	Starting AA second half-transformation.
	Starting AB second half-transformation.
	Starting BB second half-transformation.
	Two-electron integral transformation complete.
	(VV|VV)...
	Starting AA second half-transformation.
	Starting AB second half-transformation.
	Starting BB second half-transformation.
	Two-electron integral transformation complete.
	Frozen core energy     =    -75.47939044011814

	Size of irrep 0 of <AB|CD> integrals:      0.141 (MW) /      1.125 (MB)
	Size of irrep 1 of <AB|CD> integrals:      0.114 (MW) /      0.914 (MB)
	Size of irrep 2 of <AB|CD> integrals:      0.114 (MW) /      0.914 (MB)
	Size of irrep 3 of <AB|CD> integrals:      0.114 (MW) /      0.914 (MB)
	Size of irrep 4 of <AB|CD> integrals:      0.086 (MW) /      0.691 (MB)
	Size of irrep 5 of <AB|CD> integrals:      0.132 (MW) /      1.060 (MB)
	Size of irrep 6 of <AB|CD> integrals:      0.132 (MW) /      1.060 (MB)
	Size of irrep 7 of <AB|CD> integrals:      0.132 (MW) /      1.060 (MB)
	Total:                                     0.967 (MW) /      7.738 (MB)

	Size of irrep 0 of <ab|cd> integrals:      0.148 (MW) /      1.186 (MB)
	Size of irrep 1 of <ab|cd> integrals:      0.121 (MW) /      0.969 (MB)
	Size of irrep 2 of <ab|cd> integrals:      0.121 (MW) /      0.969 (MB)
	Size of irrep 3 of <ab|cd> integrals:      0.116 (MW) /      0.930 (MB)
	Size of irrep 4 of <ab|cd> integrals:      0.091 (MW) /      0.730 (MB)
	Size of irrep 5 of <ab|cd> integrals:      0.138 (MW) /      1.107 (MB)
	Size of irrep 6 of <ab|cd> integrals:      0.138 (MW) /      1.107 (MB)
	Size of irrep 7 of <ab|cd> integrals:      0.146 (MW) /      1.167 (MB)
	Total:                                     1.021 (MW) /      8.165 (MB)

	Size of irrep 0 of <Ab|Cd> integrals:      0.697 (MW) /      5.578 (MB)
	Size of irrep 1 of <Ab|Cd> integrals:      0.471 (MW) /      3.765 (MB)
	Size of irrep 2 of <Ab|Cd> integrals:      0.471 (MW) /      3.765 (MB)
	Size of irrep 3 of <Ab|Cd> integrals:      0.461 (MW) /      3.688 (MB)
	Size of irrep 4 of <Ab|Cd> integrals:      0.355 (MW) /      2.842 (MB)
	Size of irrep 5 of <Ab|Cd> integrals:      0.542 (MW) /      4.334 (MB)
	Size of irrep 6 of <Ab|Cd> integrals:      0.542 (MW) /      4.334 (MB)
	Size of irrep 7 of <Ab|Cd> integrals:      0.557 (MW) /      4.452 (MB)
	Total:                                     4.095 (MW) /     32.757 (MB)

	Size of irrep 0 of <IA|BC> integrals:      0.040 (MW) /      0.317 (MB)
	Size of irrep 1 of <IA|BC> integrals:      0.021 (MW) /      0.168 (MB)
	Size of irrep 2 of <IA|BC> integrals:      0.021 (MW) /      0.168 (MB)
	Size of irrep 3 of <IA|BC> integrals:      0.021 (MW) /      0.168 (MB)
	Size of irrep 4 of <IA|BC> integrals:      0.016 (MW) /      0.127 (MB)
	Size of irrep 5 of <IA|BC> integrals:      0.032 (MW) /      0.256 (MB)
	Size of irrep 6 of <IA|BC> integrals:      0.032 (MW) /      0.256 (MB)
	Size of irrep 7 of <IA|BC> integrals:      0.032 (MW) /      0.256 (MB)
	Total:                                     0.214 (MW) /      1.716 (MB)

	Size of irrep 0 of <ia|bc> integrals:      0.032 (MW) /      0.257 (MB)
	Size of irrep 1 of <ia|bc> integrals:      0.015 (MW) /      0.122 (MB)
	Size of irrep 2 of <ia|bc> integrals:      0.015 (MW) /      0.122 (MB)
	Size of irrep 3 of <ia|bc> integrals:      0.019 (MW) /      0.153 (MB)
	Size of irrep 4 of <ia|bc> integrals:      0.011 (MW) /      0.092 (MB)
	Size of irrep 5 of <ia|bc> integrals:      0.027 (MW) /      0.214 (MB)
	Size of irrep 6 of <ia|bc> integrals:      0.027 (MW) /      0.214 (MB)
	Size of irrep 7 of <ia|bc> integrals:      0.021 (MW) /      0.165 (MB)
	Total:                                     0.168 (MW) /      1.340 (MB)

	Size of irrep 0 of <Ia|Bc> integrals:      0.041 (MW) /      0.327 (MB)
	Size of irrep 1 of <Ia|Bc> integrals:      0.022 (MW) /      0.176 (MB)
	Size of irrep 2 of <Ia|Bc> integrals:      0.022 (MW) /      0.176 (MB)
	Size of irrep 3 of <Ia|Bc> integrals:      0.021 (MW) /      0.168 (MB)
	Size of irrep 4 of <Ia|Bc> integrals:      0.016 (MW) /      0.129 (MB)
	Size of irrep 5 of <Ia|Bc> integrals:      0.032 (MW) /      0.259 (MB)
	Size of irrep 6 of <Ia|Bc> integrals:      0.032 (MW) /      0.259 (MB)
	Size of irrep 7 of <Ia|Bc> integrals:      0.034 (MW) /      0.269 (MB)
	Total:                                     0.220 (MW) /      1.762 (MB)

	Size of irrep 0 of <iA|bC> integrals:      0.032 (MW) /      0.254 (MB)
	Size of irrep 1 of <iA|bC> integrals:      0.014 (MW) /      0.115 (MB)
	Size of irrep 2 of <iA|bC> integrals:      0.014 (MW) /      0.115 (MB)
	Size of irrep 3 of <iA|bC> integrals:      0.019 (MW) /      0.152 (MB)
	Size of irrep 4 of <iA|bC> integrals:      0.011 (MW) /      0.091 (MB)
	Size of irrep 5 of <iA|bC> integrals:      0.026 (MW) /      0.212 (MB)
	Size of irrep 6 of <iA|bC> integrals:      0.026 (MW) /      0.212 (MB)
	Size of irrep 7 of <iA|bC> integrals:      0.019 (MW) /      0.155 (MB)
	Total:                                     0.163 (MW) /      1.306 (MB)

	Size of irrep 0 of tIjAb amplitudes:       0.003 (MW) /      0.020 (MB)
	Size of irrep 1 of tIjAb amplitudes:       0.001 (MW) /      0.005 (MB)
	Size of irrep 2 of tIjAb amplitudes:       0.001 (MW) /      0.005 (MB)
	Size of irrep 3 of tIjAb amplitudes:       0.001 (MW) /      0.011 (MB)
	Size of irrep 4 of tIjAb amplitudes:       0.000 (MW) /      0.000 (MB)
	Size of irrep 5 of tIjAb amplitudes:       0.001 (MW) /      0.012 (MB)
	Size of irrep 6 of tIjAb amplitudes:       0.001 (MW) /      0.012 (MB)
	Size of irrep 7 of tIjAb amplitudes:       0.001 (MW) /      0.006 (MB)
	Total:                                     0.009 (MW) /      0.071 (MB)

	Nuclear Rep. energy          =      0.00000000000000
	SCF energy                   =    -99.41408536589162
	One-electron energy          =    -41.04999424550777
	Two-electron (AA) energy     =      4.51744280351497
	Two-electron (BB) energy     =      2.15034519105093
	Two-electron (AB) energy     =     10.44751132516839
	Two-electron energy          =     17.11529931973429
	Reference energy             =    -99.41408536589162

*** tstop() called on cqc05 at Thu Aug 20 22:42:17 2020
Module time:
	user time   =       0.46 seconds =       0.01 minutes
	system time =       0.27 seconds =       0.00 minutes
	total time  =          1 seconds =       0.02 minutes
Total time:
	user time   =       1.84 seconds =       0.03 minutes
	system time =       0.32 seconds =       0.01 minutes
	total time  =          2 seconds =       0.03 minutes

*** tstart() called on cqc05
*** at Thu Aug 20 22:42:17 2020

            **************************
            *                        *
            *        CCENERGY        *
            *                        *
            **************************

    Nuclear Rep. energy (wfn)     =    0.000000000000000
    SCF energy          (wfn)     =  -99.414085365891623
    Reference energy    (file100) =  -99.414085365891623

    Input parameters:
    -----------------
    Wave function   =     CCSD
    Reference wfn   =     UHF
    Brueckner       =     No
    Memory (Mbytes) =     250000.0
    Maxiter         =     50
    R_Convergence   =     1.0e-07
    E_Convergence   =     1.0e-06
    Restart         =     Yes
    DIIS            =     Yes
    AO Basis        =     NONE
    ABCD            =     NEW
    Cache Level     =     2
    Cache Type      =     LRU
    Print Level     =     1
    Num. of threads =     4
    # Amps to Print =     10
    Print MP2 Amps? =     No
    Analyze T2 Amps =     No
    Print Pair Ener =     No
    Local CC        =     No
    SCS-MP2         =     False
    SCSN-MP2        =     False
    SCS-CCSD        =     False

MP2 correlation energy -0.2238912940153498
                Solving CC Amplitude Equations
                ------------------------------
  Iter             Energy              RMS        T1Diag      D1Diag    New D1Diag    D2Diag
  ----     ---------------------    ---------   ----------  ----------  ----------   --------
     0        -0.223891294015350    0.000e+00    0.000000    0.000000    0.000000    0.000000
     1        -0.230430735401183    2.859e-02    0.007949    0.000000    0.000000    0.000000
     2        -0.233290994912699    8.245e-03    0.008627    0.000000    0.000000    0.000000
     3        -0.233947581195068    4.129e-03    0.009806    0.000000    0.000000    0.000000
     4        -0.233872605149802    1.405e-03    0.009979    0.000000    0.000000    0.000000
     5        -0.233884613430173    5.603e-04    0.009995    0.000000    0.000000    0.000000
     6        -0.233896946581219    1.607e-04    0.009979    0.000000    0.000000    0.000000
     7        -0.233896090668904    4.639e-05    0.009973    0.000000    0.000000    0.000000
     8        -0.233896076589506    1.393e-05    0.009974    0.000000    0.000000    0.000000
     9        -0.233895927437834    4.082e-06    0.009974    0.000000    0.000000    0.000000
    10        -0.233895952324214    1.228e-06    0.009974    0.000000    0.000000    0.000000
    11        -0.233895975606367    2.773e-07    0.009974    0.000000    0.000000    0.000000
    12        -0.233895981707992    6.895e-08    0.009974    0.000000    0.000000    0.000000
    12        -0.233895981707992    6.895e-08    0.009974    0.000000    0.000000    0.000000

    Iterations converged.

    CCSD corr. energy   =   -0.233895981707992
    PPL corr. energy    =    0.039880604381924
    OS PPL corr. energy =    0.033191674089783
    SS PPL corr. energy =    0.006688930292141
    Largest TIA Amplitudes:
              3  65        -0.0091697531
              1  45        -0.0087471545
              2  55        -0.0087471545
              3  66        -0.0071321816
              1  46        -0.0061110158
              2  56        -0.0061110158
              0   0        -0.0048522593
              0   3         0.0031942532
              1  49         0.0031037618
              2  59         0.0031037618

    Largest Tia Amplitudes:
              1  45        -0.0076921048
              2  55        -0.0076921048
              0   5        -0.0057373370
              1  49         0.0044101836

      * MP2 total energy                      =  -99.637976659906968
      * CCSD total energy                     =  -99.647981347599611
*** Psi4 exiting successfully. Buy a developer a beer!
