                               Psi4 1.2a1.dev938

  ==> Input File <==

--------------------------------------------------------------------------
# Any line starting with the # character is a comment line
memory 250000 mb
molecule molecule{
0 2
F          0.0000000000        0.0000000000        0.0000000000
}

set {
  reference uhf
  basis aug-cc-pv(d+d)z
  scf_type OUT_OF_CORE
  freeze_core true
}

energy('ccsd')
--------------------------------------------------------------------------

    Molecular point group: d2h
    Geometry (in Angstrom), charge = 0, multiplicity = 2:

       Center              X                  Y                   Z               Mass
    ------------   -----------------  -----------------  -----------------  -----------------
           F          0.000000000000     0.000000000000     0.000000000000    18.998403224000

  Charge       = 0
  Multiplicity = 2
  Basis Set: AUG-CC-PV(D+D)Z
    Blend: AUG-CC-PV(D+D)Z

    Orbital Energies (a.u.)
    -----------------------

    Alpha Occupied:

       1Ag   -26.424525     2Ag    -1.679134     1B3u   -0.844701
       1B1u   -0.733188     1B2u   -0.733188

    Alpha Virtual:

       2B3u    0.224139     3Ag     0.228160     2B1u    0.237757
       2B2u    0.237757     4Ag     1.278360     1B1g    1.289810
       1B2g    1.289810     1B3g    1.324547     5Ag     1.324547
       3B3u    1.532314     3B1u    1.598664     3B2u    1.598664
       6Ag     2.190514     7Ag     4.693001     2B1g    4.715904
       2B2g    4.715904     8Ag     4.788526     2B3g    4.788526

    Beta Occupied:

       1Ag   -26.375229     2Ag    -1.485072     1B1u   -0.680372
       1B2u   -0.680372

    Beta Virtual:

       1B3u    0.032303     3Ag     0.237852     2B1u    0.240919
       2B2u    0.240919     2B3u    0.294990     4Ag     1.325416
       1B3g    1.325416     1B1g    1.336443     1B2g    1.336443
       5Ag     1.341035     3B1u    1.622392     3B2u    1.622392
       3B3u    1.732139     6Ag     2.243924     2B3g    4.807796
       7Ag     4.807796     2B1g    4.831469     2B2g    4.831469
       8Ag     4.840458

    Final Occupation by Irrep:
             Ag   B1g   B2g   B3g    Au   B1u   B2u   B3u
    DOCC [     2,    0,    0,    0,    0,    1,    1,    0 ]
    SOCC [     0,    0,    0,    0,    0,    0,    0,    1 ]

  Energy converged.

  @UHF Final Energy:   -99.38109179295729

   => Energetics <=

    Nuclear Repulsion Energy =              0.0000000000000000
    One-Electron Energy =                -139.1264010231103612
    Two-Electron Energy =                  39.7453092301530617
    Total Energy =                        -99.3810917929573066

  UHF NO Occupations:
  HONO-2 :    1B1u 1.9997217
  HONO-1 :    2 Ag 1.9987353
  HONO-0 :    1B3u 1.0000000
  LUNO+0 :    3 Ag 0.0012647
  LUNO+1 :    2B2u 0.0002783
  LUNO+2 :    2B1u 0.0002783
  LUNO+3 :    4 Ag 0.0000004

Properties will be evaluated at   0.000000,   0.000000,   0.000000 Bohr

Properties computed using the SCF density matrix

  Nuclear Dipole Moment: (a.u.)
     X:     0.0000      Y:     0.0000      Z:     0.0000

  Electronic Dipole Moment: (a.u.)
     X:     0.0000      Y:     0.0000      Z:     0.0000

  Dipole Moment: (a.u.)
     X:     0.0000      Y:     0.0000      Z:     0.0000     Total:     0.0000

  Dipole Moment: (Debye)
     X:     0.0000      Y:     0.0000      Z:     0.0000     Total:     0.0000

*** tstop() called on cqc05 at Thu Aug 20 19:56:38 2020
Module time:
	user time   =       0.22 seconds =       0.00 minutes
	system time =       0.02 seconds =       0.00 minutes
	total time  =          0 seconds =       0.00 minutes
Total time:
	user time   =       0.22 seconds =       0.00 minutes
	system time =       0.02 seconds =       0.00 minutes
	total time  =          0 seconds =       0.00 minutes

*** tstart() called on cqc05
*** at Thu Aug 20 19:56:38 2020

	Wfn Parameters:
	--------------------
	Wavefunction         = CCSD
	Number of irreps     = 8
	Number of MOs        = 23
	Number of active MOs = 22
	AO-Basis             = NONE
	Semicanonical        = false
	Reference            = UHF
	Print Level          = 1

	IRREP	# MOs	# FZDC	# DOCC	# SOCC	# VIRT	# FZVR
	-----	-----	------	------	------	------	------
	 Ag	   8	    1	    1	    0	    6	    0
	 B1g	   2	    0	    0	    0	    2	    0
	 B2g	   2	    0	    0	    0	    2	    0
	 B3g	   2	    0	    0	    0	    2	    0
	 Au	   0	    0	    0	    0	    0	    0
	 B1u	   3	    0	    1	    0	    2	    0
	 B2u	   3	    0	    1	    0	    2	    0
	 B3u	   3	    0	    0	    1	    2	    0
	Transforming integrals...
	IWL integrals will be deleted.
	(OO|OO)...
	Presorting SO-basis two-electron integrals.
	Sorting File: SO Ints (nn|nn) nbuckets = 1
	Transforming the one-electron integrals and constructing Fock matrices
	Starting AA/AB first half-transformation.
	Sorting AA/AB half-transformed integrals.
	Starting BB first half-transformation.
	Sorting BB half-transformed integrals.
	First half integral transformation complete.
	Starting AA second half-transformation.
	Starting AB second half-transformation.
	Starting BB second half-transformation.
	Two-electron integral transformation complete.
	(OO|OV)...
	Starting AA second half-transformation.
	Starting AB second half-transformation.
	Starting BB second half-transformation.
	Two-electron integral transformation complete.
	(OO|VV)...
	Starting AA second half-transformation.
	Starting AB second half-transformation.
	Starting BB second half-transformation.
	Two-electron integral transformation complete.
	(OV|OO)...
	Starting AA/AB first half-transformation.
	Sorting AA/AB half-transformed integrals.
	Starting BB first half-transformation.
	Sorting BB half-transformed integrals.
	First half integral transformation complete.
	Starting AA second half-transformation.
	Starting AB second half-transformation.
	Starting BB second half-transformation.
	Two-electron integral transformation complete.
	(OV|OV)...
	Starting AA second half-transformation.
	Starting AB second half-transformation.
	Starting BB second half-transformation.
	Two-electron integral transformation complete.
	(OV|VV)...
	Starting AA second half-transformation.
	Starting AB second half-transformation.
	Starting BB second half-transformation.
	Two-electron integral transformation complete.
	(VV|OO)...
	Starting AA/AB first half-transformation.
	Sorting AA/AB half-transformed integrals.
	Starting BB first half-transformation.
	Sorting BB half-transformed integrals.
	First half integral transformation complete.
	Starting AA second half-transformation.
	Starting AB second half-transformation.
	Starting BB second half-transformation.
	Two-electron integral transformation complete.
	(VV|OV)...
	Starting AA second half-transformation.
	Starting AB second half-transformation.
	Starting BB second half-transformation.
	Two-electron integral transformation complete.
	(VV|VV)...
	Starting AA second half-transformation.
	Starting AB second half-transformation.
	Starting BB second half-transformation.
	Two-electron integral transformation complete.
	Frozen core energy     =    -75.47741967496597

	Size of irrep 0 of <AB|CD> integrals:      0.000 (MW) /      0.004 (MB)
	Size of irrep 1 of <AB|CD> integrals:      0.000 (MW) /      0.003 (MB)
	Size of irrep 2 of <AB|CD> integrals:      0.000 (MW) /      0.003 (MB)
	Size of irrep 3 of <AB|CD> integrals:      0.000 (MW) /      0.003 (MB)
	Size of irrep 4 of <AB|CD> integrals:      0.000 (MW) /      0.001 (MB)
	Size of irrep 5 of <AB|CD> integrals:      0.000 (MW) /      0.003 (MB)
	Size of irrep 6 of <AB|CD> integrals:      0.000 (MW) /      0.003 (MB)
	Size of irrep 7 of <AB|CD> integrals:      0.000 (MW) /      0.003 (MB)
	Total:                                     0.003 (MW) /      0.024 (MB)

	Size of irrep 0 of <ab|cd> integrals:      0.001 (MW) /      0.004 (MB)
	Size of irrep 1 of <ab|cd> integrals:      0.000 (MW) /      0.004 (MB)
	Size of irrep 2 of <ab|cd> integrals:      0.000 (MW) /      0.004 (MB)
	Size of irrep 3 of <ab|cd> integrals:      0.000 (MW) /      0.003 (MB)
	Size of irrep 4 of <ab|cd> integrals:      0.000 (MW) /      0.002 (MB)
	Size of irrep 5 of <ab|cd> integrals:      0.000 (MW) /      0.004 (MB)
	Size of irrep 6 of <ab|cd> integrals:      0.000 (MW) /      0.004 (MB)
	Size of irrep 7 of <ab|cd> integrals:      0.001 (MW) /      0.005 (MB)
	Total:                                     0.004 (MW) /      0.030 (MB)

	Size of irrep 0 of <Ab|Cd> integrals:      0.004 (MW) /      0.031 (MB)
	Size of irrep 1 of <Ab|Cd> integrals:      0.002 (MW) /      0.014 (MB)
	Size of irrep 2 of <Ab|Cd> integrals:      0.002 (MW) /      0.014 (MB)
	Size of irrep 3 of <Ab|Cd> integrals:      0.002 (MW) /      0.013 (MB)
	Size of irrep 4 of <Ab|Cd> integrals:      0.001 (MW) /      0.005 (MB)
	Size of irrep 5 of <Ab|Cd> integrals:      0.002 (MW) /      0.014 (MB)
	Size of irrep 6 of <Ab|Cd> integrals:      0.002 (MW) /      0.014 (MB)
	Size of irrep 7 of <Ab|Cd> integrals:      0.002 (MW) /      0.017 (MB)
	Total:                                     0.015 (MW) /      0.122 (MB)

	Size of irrep 0 of <IA|BC> integrals:      0.001 (MW) /      0.006 (MB)
	Size of irrep 1 of <IA|BC> integrals:      0.000 (MW) /      0.002 (MB)
	Size of irrep 2 of <IA|BC> integrals:      0.000 (MW) /      0.002 (MB)
	Size of irrep 3 of <IA|BC> integrals:      0.000 (MW) /      0.002 (MB)
	Size of irrep 4 of <IA|BC> integrals:      0.000 (MW) /      0.001 (MB)
	Size of irrep 5 of <IA|BC> integrals:      0.000 (MW) /      0.004 (MB)
	Size of irrep 6 of <IA|BC> integrals:      0.000 (MW) /      0.004 (MB)
	Size of irrep 7 of <IA|BC> integrals:      0.000 (MW) /      0.004 (MB)
	Total:                                     0.003 (MW) /      0.024 (MB)

	Size of irrep 0 of <ia|bc> integrals:      0.001 (MW) /      0.005 (MB)
	Size of irrep 1 of <ia|bc> integrals:      0.000 (MW) /      0.002 (MB)
	Size of irrep 2 of <ia|bc> integrals:      0.000 (MW) /      0.002 (MB)
	Size of irrep 3 of <ia|bc> integrals:      0.000 (MW) /      0.002 (MB)
	Size of irrep 4 of <ia|bc> integrals:      0.000 (MW) /      0.001 (MB)
	Size of irrep 5 of <ia|bc> integrals:      0.000 (MW) /      0.004 (MB)
	Size of irrep 6 of <ia|bc> integrals:      0.000 (MW) /      0.004 (MB)
	Size of irrep 7 of <ia|bc> integrals:      0.000 (MW) /      0.003 (MB)
	Total:                                     0.003 (MW) /      0.021 (MB)

	Size of irrep 0 of <Ia|Bc> integrals:      0.001 (MW) /      0.006 (MB)
	Size of irrep 1 of <Ia|Bc> integrals:      0.000 (MW) /      0.002 (MB)
	Size of irrep 2 of <Ia|Bc> integrals:      0.000 (MW) /      0.002 (MB)
	Size of irrep 3 of <Ia|Bc> integrals:      0.000 (MW) /      0.002 (MB)
	Size of irrep 4 of <Ia|Bc> integrals:      0.000 (MW) /      0.001 (MB)
	Size of irrep 5 of <Ia|Bc> integrals:      0.001 (MW) /      0.004 (MB)
	Size of irrep 6 of <Ia|Bc> integrals:      0.001 (MW) /      0.004 (MB)
	Size of irrep 7 of <Ia|Bc> integrals:      0.001 (MW) /      0.005 (MB)
	Total:                                     0.003 (MW) /      0.027 (MB)

	Size of irrep 0 of <iA|bC> integrals:      0.001 (MW) /      0.005 (MB)
	Size of irrep 1 of <iA|bC> integrals:      0.000 (MW) /      0.001 (MB)
	Size of irrep 2 of <iA|bC> integrals:      0.000 (MW) /      0.001 (MB)
	Size of irrep 3 of <iA|bC> integrals:      0.000 (MW) /      0.002 (MB)
	Size of irrep 4 of <iA|bC> integrals:      0.000 (MW) /      0.001 (MB)
	Size of irrep 5 of <iA|bC> integrals:      0.000 (MW) /      0.003 (MB)
	Size of irrep 6 of <iA|bC> integrals:      0.000 (MW) /      0.003 (MB)
	Size of irrep 7 of <iA|bC> integrals:      0.000 (MW) /      0.002 (MB)
	Total:                                     0.002 (MW) /      0.019 (MB)

	Size of irrep 0 of tIjAb amplitudes:       0.000 (MW) /      0.001 (MB)
	Size of irrep 1 of tIjAb amplitudes:       0.000 (MW) /      0.000 (MB)
	Size of irrep 2 of tIjAb amplitudes:       0.000 (MW) /      0.000 (MB)
	Size of irrep 3 of tIjAb amplitudes:       0.000 (MW) /      0.001 (MB)
	Size of irrep 4 of tIjAb amplitudes:       0.000 (MW) /      0.000 (MB)
	Size of irrep 5 of tIjAb amplitudes:       0.000 (MW) /      0.001 (MB)
	Size of irrep 6 of tIjAb amplitudes:       0.000 (MW) /      0.001 (MB)
	Size of irrep 7 of tIjAb amplitudes:       0.000 (MW) /      0.000 (MB)
	Total:                                     0.001 (MW) /      0.005 (MB)

	Nuclear Rep. energy          =      0.00000000000000
	SCF energy                   =    -99.38109179295729
	One-electron energy          =    -40.97131545785190
	Two-electron (AA) energy     =      4.50300098572469
	Two-electron (BB) energy     =      2.14531598920334
	Two-electron (AB) energy     =     10.41932636493256
	Two-electron energy          =     17.06764333986060
	Reference energy             =    -99.38109179295728

*** tstop() called on cqc05 at Thu Aug 20 19:56:38 2020
Module time:
	user time   =       0.04 seconds =       0.00 minutes
	system time =       0.03 seconds =       0.00 minutes
	total time  =          0 seconds =       0.00 minutes
Total time:
	user time   =       0.26 seconds =       0.00 minutes
	system time =       0.05 seconds =       0.00 minutes
	total time  =          0 seconds =       0.00 minutes

*** tstart() called on cqc05
*** at Thu Aug 20 19:56:38 2020

            **************************
            *                        *
            *        CCENERGY        *
            *                        *
            **************************

    Nuclear Rep. energy (wfn)     =    0.000000000000000
    SCF energy          (wfn)     =  -99.381091792957292
    Reference energy    (file100) =  -99.381091792957278

    Input parameters:
    -----------------
    Wave function   =     CCSD
    Reference wfn   =     UHF
    Brueckner       =     No
    Memory (Mbytes) =     250000.0
    Maxiter         =     50
    R_Convergence   =     1.0e-07
    E_Convergence   =     1.0e-06
    Restart         =     Yes
    DIIS            =     Yes
    AO Basis        =     NONE
    ABCD            =     NEW
    Cache Level     =     2
    Cache Type      =     LRU
    Print Level     =     1
    Num. of threads =     4
    # Amps to Print =     10
    Print MP2 Amps? =     No
    Analyze T2 Amps =     No
    Print Pair Ener =     No
    Local CC        =     No
    SCS-MP2         =     False
    SCSN-MP2        =     False
    SCS-CCSD        =     False

MP2 correlation energy -0.1546072712917154
                Solving CC Amplitude Equations
                ------------------------------
  Iter             Energy              RMS        T1Diag      D1Diag    New D1Diag    D2Diag
  ----     ---------------------    ---------   ----------  ----------  ----------   --------
     0        -0.154607271291715    0.000e+00    0.000000    0.000000    0.000000    0.000000
     1        -0.163260431073771    3.499e-02    0.011019    0.000000    0.000000    0.000000
     2        -0.165953715617839    9.198e-03    0.011944    0.000000    0.000000    0.000000
     3        -0.166661853112549    4.859e-03    0.013585    0.000000    0.000000    0.000000
     4        -0.166642507883220    1.611e-03    0.013851    0.000000    0.000000    0.000000
     5        -0.166641571374232    5.857e-04    0.013830    0.000000    0.000000    0.000000
     6        -0.166656759004226    1.619e-04    0.013808    0.000000    0.000000    0.000000
     7        -0.166657446790175    3.553e-05    0.013801    0.000000    0.000000    0.000000
     8        -0.166657203885523    9.494e-06    0.013802    0.000000    0.000000    0.000000
     9        -0.166657114646105    3.112e-06    0.013803    0.000000    0.000000    0.000000
    10        -0.166657112212070    8.572e-07    0.013803    0.000000    0.000000    0.000000
    11        -0.166657117076174    2.086e-07    0.013803    0.000000    0.000000    0.000000
    12        -0.166657119467182    6.237e-08    0.013803    0.000000    0.000000    0.000000
    12        -0.166657119467182    6.237e-08    0.013803    0.000000    0.000000    0.000000

    Iterations converged.

    CCSD corr. energy   =   -0.166657119467182
    PPL corr. energy    =    0.025041247842860
    OS PPL corr. energy =    0.020313380337227
    SS PPL corr. energy =    0.004727867505633
    Largest TIA Amplitudes:
              1  12        -0.0154004841
              2  14        -0.0154004841
              3  16        -0.0140673886
              0   0         0.0073867319
              1  13        -0.0041624488
              2  15        -0.0041624488
              3  17        -0.0041283705
              0   1         0.0020323306
              0   3        -0.0008563086
              0   4         0.0004282745

    Largest Tia Amplitudes:
              1  12        -0.0152870967
              2  14        -0.0152870967
              0   2        -0.0055275110
              0   0         0.0052606831
              0   5         0.0035438988
              1  13        -0.0022161750
              2  15        -0.0022161750
              0   3         0.0014399759

    Largest TIJAB Amplitudes:
      3   2  17  15        -0.0241620110
      3   1  17  13        -0.0241620110
      2   1  15  13        -0.0238315918
      2   1  10   2        -0.0174296716
      3   2   6   1         0.0139209224
      3   1   8   1         0.0139209224
      3   2  17  14        -0.0131248323
      3   1  17  12        -0.0131248323
      2   1  14  13        -0.0128991729
      2   1  15  12        -0.0128991729

    Largest Tijab Amplitudes:
      2   1  15  13        -0.0236755521
      2   1  10   1        -0.0179884114
      2   1  14  13        -0.0136378279
      2   1  15  12        -0.0136378279
      1   0  16   8        -0.0132988756
      2   0  16   6        -0.0132988756
      1   0  13   3        -0.0117588810
      2   0  15   3        -0.0117588810
      2   1  14  12        -0.0116858927
      2   1  11   4        -0.0111207983

    Largest TIjAb Amplitudes:
      1   1  13  13        -0.0453595224
      2   2  15  15        -0.0453595224
      1   2  13  15        -0.0316321810
      2   1  15  13        -0.0316321810
      3   2  17  15        -0.0316243950
      3   1  17  13        -0.0316243950
      3   0   1  16         0.0282632434
      1   0   8  16         0.0247481092
      2   0   6  16         0.0247481092

      * MP2 total energy                      =  -99.535699064248988
      * CCSD total energy                     =  -99.547748912424467
*** Psi4 exiting successfully. Buy a developer a beer!
