                               Psi4 1.2a1.dev939

  ==> Input File <==

--------------------------------------------------------------------------
# Any line starting with the # character is a comment line
memory 250000 mb
molecule molecule{
0 2
P          0.0000000000        0.0000000000        0.5093442540
O          0.0000000000        0.0000000000       -0.9860561446
}

set {
  reference uhf
  basis aug-cc-pv(5+d)z
  scf_type OUT_OF_CORE
  freeze_core true
}

energy('ccsd')
--------------------------------------------------------------------------

    Molecular point group: c2v

    Geometry (in Angstrom), charge = 0, multiplicity = 2:

       Center              X                  Y                   Z               Mass
    ------------   -----------------  -----------------  -----------------  -----------------
           P          0.000000000000     0.000000000000     0.509250070645    30.973761629000
           O          0.000000000000     0.000000000000    -0.986150327955    15.994914619560

  Charge       = 0
  Multiplicity = 2
  Basis Set: AUG-CC-PV(5+D)Z
    Blend: AUG-CC-PV(5+D)Z

    Orbital Energies (a.u.)
    -----------------------

    Alpha Occupied:

       1A1   -80.031920     2A1   -20.590845     3A1    -7.568803
       1B2    -5.470770     1B1    -5.459379     4A1    -5.457430
       5A1    -1.356035     6A1    -0.766866     2B2    -0.600810
       7A1    -0.556305     2B1    -0.527295     3B2    -0.343926

    Alpha Virtual:

       3B1    -0.004251     8A1     0.041555     9A1     0.053937
       4B2     0.057315     4B1     0.064146    10A1     0.119366
       5B1     0.141795     5B2     0.142283    11A1     0.142963
       1A2     0.143096    12A1     0.150355     6B2     0.194108
       6B1     0.196907    13A1     0.210925    14A1     0.227840
       7B2     0.275061     7B1     0.283970    15A1     0.334177
       2A2     0.359075    16A1     0.359190     8B2     0.359710
       8B1     0.359726    17A1     0.376957     3A2     0.377247
       9B2     0.406070     9B1     0.407381    18A1     0.409687
      19A1     0.470366    10B2     0.507125    10B1     0.524491
      11B2     0.528997    11B1     0.530399    20A1     0.549244
       4A2     0.549648    21A1     0.558982    22A1     0.595788
      12B1     0.668724    12B2     0.670386    23A1     0.815251
       5A2     0.883767    24A1     0.883767    13B2     0.888154
      13B1     0.888170    25A1     0.921190     6A2     0.935851
      26A1     0.937216     7A2     0.947293    27A1     0.947981
      14B2     0.955276    14B1     0.955980    15B2     0.964887
      15B1     0.972632    28A1     0.987570    16B1     0.992424
      16B2     0.998787     8A2     1.024032    29A1     1.024819
      17B1     1.097787    17B2     1.101414    30A1     1.163898
      18B1     1.209673    18B2     1.209678    31A1     1.246016
       9A2     1.267852    32A1     1.268073    19B1     1.282093
      19B2     1.284348    33A1     1.305980    20B2     1.462357
      20B1     1.462952    34A1     1.483832    35A1     1.663969
      21B1     1.667624    21B2     1.667841    10A2     1.708782
      36A1     1.709459    37A1     1.914739    22B1     2.109141
      22B2     2.112493    38A1     2.123219    11A2     2.123220
      23B1     2.129208    23B2     2.129208    39A1     2.136298
      12A2     2.136612    24B1     2.146179    24B2     2.146190
      25B1     2.256339    40A1     2.260962    13A2     2.264322
      41A1     2.264864    25B2     2.265323    26B1     2.270988
      26B2     2.271755    42A1     2.287239    14A2     2.287250
      43A1     2.315834    27B1     2.333792    27B2     2.334740
      28B1     2.345225    15A2     2.353511    44A1     2.355279
      28B2     2.358143    45A1     2.547117    29B1     2.585681
      29B2     2.595864    46A1     2.687136    16A2     2.691501
      47A1     2.692437    17A2     2.843833    48A1     2.843833
      30B1     2.915237    30B2     2.924804    31B1     3.039909
      31B2     3.039910    49A1     3.063817    18A2     3.197204
      50A1     3.197345    32B1     3.341422    32B2     3.347628
      33B1     3.430059    33B2     3.430068    51A1     3.473283
      34B1     3.501350    34B2     3.508753    52A1     3.566985
      19A2     3.567061    53A1     3.586289    54A1     3.724038
      35B1     4.046038    35B2     4.052887    20A2     4.251011
      55A1     4.251093    56A1     4.315597    36B1     4.553020
      36B2     4.553028    21A2     4.620066    57A1     4.620235
      37B1     4.662271    37B2     4.674906    58A1     4.796273
      38B1     4.828792    38B2     4.839529    22A2     4.898189
      59A1     4.899329    60A1     4.974033    39B1     5.150544
      61A1     5.154113    23A2     5.154113    39B2     5.155734
      40B1     5.155742    40B2     5.164457    41B1     5.165161
      41B2     5.165208    62A1     5.241174    24A2     5.241340
      63A1     5.254213    25A2     5.259949    64A1     5.271556
      42B1     5.311174    42B2     5.311199    43B1     5.490910
      65A1     5.491045    43B2     5.501230    44B1     5.735931
      66A1     5.749752    44B2     5.749850    26A2     5.750593
      67A1     5.871096    45B1     6.220748    45B2     6.220748
      68A1     6.310448    46B1     6.347787    46B2     6.360431
      27A2     6.378136    69A1     6.378136    47B1     7.026649
      47B2     7.026650    70A1     7.185320    28A2     7.185320
      71A1     7.372313    29A2     7.372434    72A1     7.431410
      48B1     7.454934    48B2     7.463353    49B1     7.486002
      49B2     7.486039    50B1     7.606727    50B2     7.606727
      73A1     7.713098    74A1     7.799182    30A2     7.799429
      75A1     7.970519    51B1     8.066878    51B2     8.077477
      31A2     8.639178    76A1     8.639200    32A2     8.819707
      77A1     8.819718    78A1     8.965068    52B1     8.978060
      52B2     8.987106    53B1    10.046216    53B2    10.055068
      79A1    10.359169    80A1    12.171283    33A2    13.118837
      81A1    13.118872    54B1    13.435781    54B2    13.444300
      82A1    13.811538    55B1    16.206007    55B2    16.211537
      56B1    16.258476    56B2    16.258476    83A1    16.320022
      34A2    16.320022    57B1    16.560396    57B2    16.560402
      58B1    16.752823    58B2    16.763856    84A1    16.794594
      35A2    16.812614    85A1    16.816306    86A1    17.654629
      59B1    17.966542    59B2    17.969137    87A1    19.141959
      36A2    19.141959    88A1    19.166096    60B1    19.279656
      60B2    19.279656    61B1    19.300222    61B2    19.300225
      37A2    19.416333    89A1    19.416557    62B1    19.607187
      62B2    19.620420    90A1    19.807364    38A2    19.807441
      91A1    20.208896    63B1    20.277509    63B2    20.288669
      92A1    21.364006    93A1    22.311719    39A2    22.311725
      64B1    23.047231    64B2    23.056577    94A1    23.571626
      95A1    54.635262    96A1    63.128226

    Beta Occupied:

       1A1   -80.026075     2A1   -20.577940     3A1    -7.562665
       1B1    -5.457115     4A1    -5.455772     1B2    -5.442001
       5A1    -1.323430     6A1    -0.709778     7A1    -0.516134
       2B1    -0.512441     2B2    -0.500304

    Beta Virtual:

       3B1     0.005508     3B2     0.034126     8A1     0.043688
       9A1     0.054486     4B1     0.066186     4B2     0.085577
      10A1     0.121498     5B1     0.142194     5B2     0.144295
       1A2     0.150090    11A1     0.150669    12A1     0.154980
       6B1     0.198026     6B2     0.205554    13A1     0.214807
      14A1     0.230646     7B1     0.285623     7B2     0.303793
      15A1     0.339602    16A1     0.362313     2A2     0.362388
       8B1     0.363214     8B2     0.363242     3A2     0.406490
       9B1     0.406956    17A1     0.407372    18A1     0.411448
       9B2     0.418024    19A1     0.478500    10B1     0.525832
      11B1     0.532998    10B2     0.535546    11B2     0.547441
      20A1     0.553106     4A2     0.553995    21A1     0.563826
      22A1     0.598905    12B1     0.669085    12B2     0.682701
      23A1     0.820790     5A2     0.889424    24A1     0.889427
      13B1     0.891248    13B2     0.891301    25A1     0.923289
       6A2     0.951085    26A1     0.952207    27A1     0.959183
       7A2     0.962533    14B1     0.968704    14B2     0.972125
      15B1     0.975837    16B1     0.992979    28A1     0.997125
      15B2     1.002341    16B2     1.008263     8A2     1.033057
      29A1     1.033675    17B1     1.100829    17B2     1.121559
      30A1     1.172589    18B1     1.210941    18B2     1.210991
      31A1     1.251658     9A2     1.270327    32A1     1.270585
      19B1     1.282592    19B2     1.293028    33A1     1.311027
      20B1     1.465202    20B2     1.481565    34A1     1.488918
      21B1     1.669752    35A1     1.670189    21B2     1.684183
      10A2     1.715803    36A1     1.717355    37A1     1.922839
      22B1     2.110959    38A1     2.127930    11A2     2.127961
      22B2     2.132426    23B1     2.137542    23B2     2.137561
      39A1     2.147870    12A2     2.149645    24B1     2.167820
      24B2     2.167994    25B1     2.257545    40A1     2.267766
      13A2     2.276075    41A1     2.276579    25B2     2.277776
      26B1     2.278666    26B2     2.282612    42A1     2.305976
      14A2     2.306028    43A1     2.319590    27B1     2.337307
      27B2     2.341460    28B1     2.351186    15A2     2.360768
      44A1     2.365806    28B2     2.375083    45A1     2.551629
      29B1     2.588088    29B2     2.610759    46A1     2.690740
      16A2     2.697194    47A1     2.699059    17A2     2.844928
      48A1     2.844928    30B1     2.916413    30B2     2.934278
      31B1     3.043579    31B2     3.043584    49A1     3.065074
      18A2     3.200834    50A1     3.200982    32B1     3.342552
      32B2     3.355797    33B1     3.432556    33B2     3.432585
      51A1     3.477281    34B1     3.503610    34B2     3.529842
      52A1     3.579824    19A2     3.582382    53A1     3.597316
      54A1     3.730538    35B1     4.049333    35B2     4.069421
      20A2     4.257863    55A1     4.258193    56A1     4.323204
      36B1     4.567302    36B2     4.567373    21A2     4.626426
      57A1     4.626785    37B1     4.662909    37B2     4.686877
      58A1     4.803703    38B1     4.830191    38B2     4.850800
      22A2     4.907129    59A1     4.910174    60A1     4.976445
      39B1     5.152855    39B2     5.163091    40B1     5.163101
      61A1     5.163657    23A2     5.163657    40B2     5.177160
      41B1     5.177215    41B2     5.182775    62A1     5.250330
      24A2     5.254646    63A1     5.261476    25A2     5.270818
      64A1     5.282354    42B1     5.323545    42B2     5.323747
      43B1     5.494712    65A1     5.497504    43B2     5.518925
      44B1     5.737142    66A1     5.754792    26A2     5.756618
      44B2     5.760343    67A1     5.879075    45B1     6.221785
      45B2     6.221785    68A1     6.314531    46B1     6.349856
      46B2     6.371684    27A2     6.379277    69A1     6.379277
      47B1     7.029260    47B2     7.029262    70A1     7.190567
      28A2     7.190567    71A1     7.375744    29A2     7.376004
      72A1     7.438108    48B1     7.455541    48B2     7.467254
      49B1     7.491854    49B2     7.491935    50B1     7.616960
      50B2     7.616961    73A1     7.715565    74A1     7.804883
      30A2     7.805346    75A1     7.974227    51B1     8.069686
      51B2     8.086110    31A2     8.646362    76A1     8.646394
      77A1     8.837354    32A2     8.837381    78A1     8.970650
      52B1     8.981031    52B2     8.997025    53B1    10.050362
      53B2    10.068202    79A1    10.364463    80A1    12.182512
      81A1    13.127002    33A2    13.127004    54B1    13.436538
      54B2    13.452725    82A1    13.815084    55B1    16.212325
      55B2    16.232212    56B1    16.264807    56B2    16.264807
      83A1    16.325125    34A2    16.325125    57B1    16.564565
      57B2    16.564577    58B1    16.754674    58B2    16.769412
      84A1    16.796295    35A2    16.816118    85A1    16.821089
      86A1    17.660580    59B1    17.968401    59B2    17.986582
      87A1    19.152722    36A2    19.152724    88A1    19.170534
      60B1    19.293358    60B2    19.293359    61B1    19.309260
      61B2    19.309268    37A2    19.423366    89A1    19.423800
      62B1    19.610876    62B2    19.629118    90A1    19.817619
      38A2    19.817827    91A1    20.215600    63B1    20.281785
      63B2    20.300167    92A1    21.366901    93A1    22.325923
      39A2    22.325946    64B1    23.051782    64B2    23.069613
      94A1    23.577679    95A1    54.638992    96A1    63.133421

    Final Occupation by Irrep:
             A1    A2    B1    B2
    DOCC [     7,    0,    2,    2 ]
    SOCC [     0,    0,    0,    1 ]

  Energy converged.

  @UHF Final Energy:  -415.63504992683897

   => Energetics <=

    Nuclear Repulsion Energy =             42.4643895308909407
    One-Electron Energy =                -659.3848395936711313
    Two-Electron Energy =                 201.2854001359411882
    Total Energy =                       -415.6350499268390308

  UHF NO Occupations:
  HONO-2 :    2 B2 1.9963710
  HONO-1 :    7 A1 1.9923252
  HONO-0 :    3 B2 1.0000000
  LUNO+0 :    8 A1 0.0076748
  LUNO+1 :    4 B2 0.0036290
  LUNO+2 :    3 B1 0.0003773
  LUNO+3 :    9 A1 0.0001437

Properties will be evaluated at   0.000000,   0.000000,   0.000000 Bohr

Properties computed using the SCF density matrix

  Nuclear Dipole Moment: (a.u.)
     X:     0.0000      Y:     0.0000      Z:    -0.4733

  Electronic Dipole Moment: (a.u.)
     X:     0.0000      Y:     0.0000      Z:     1.5284

  Dipole Moment: (a.u.)
     X:     0.0000      Y:     0.0000      Z:     1.0552     Total:     1.0552

  Dipole Moment: (Debye)
     X:     0.0000      Y:     0.0000      Z:     2.6819     Total:     2.6819

*** tstop() called on n412-036.vsc4.prov at Fri Oct 30 15:09:06 2020
Module time:
	user time   =     519.27 seconds =       8.65 minutes
	system time =      34.31 seconds =       0.57 minutes
	total time  =        321 seconds =       5.35 minutes
Total time:
	user time   =     519.27 seconds =       8.65 minutes
	system time =      34.31 seconds =       0.57 minutes
	total time  =        321 seconds =       5.35 minutes

*** tstart() called on n412-036.vsc4.prov
*** at Fri Oct 30 15:09:06 2020

	Wfn Parameters:
	--------------------
	Wavefunction         = CCSD
	Number of irreps     = 4
	Number of MOs        = 263
	Number of active MOs = 257
	AO-Basis             = NONE
	Semicanonical        = false
	Reference            = UHF
	Print Level          = 1

	IRREP	# MOs	# FZDC	# DOCC	# SOCC	# VIRT	# FZVR
	-----	-----	------	------	------	------	------
	 A1	   96	    4	    3	    0	    89	    0
	 A2	   39	    0	    0	    0	    39	    0
	 B1	   64	    1	    1	    0	    62	    0
	 B2	   64	    1	    1	    1	    61	    0
	Transforming integrals...
	IWL integrals will be deleted.
	(OO|OO)...
	Presorting SO-basis two-electron integrals.
	Sorting File: SO Ints (nn|nn) nbuckets = 1
	Transforming the one-electron integrals and constructing Fock matrices
	Starting AA/AB first half-transformation.
	Sorting AA/AB half-transformed integrals.
	Starting BB first half-transformation.
	Sorting BB half-transformed integrals.
	First half integral transformation complete.
	Starting AA second half-transformation.
	Starting AB second half-transformation.
	Starting BB second half-transformation.
	Two-electron integral transformation complete.
	(OO|OV)...
	Starting AA second half-transformation.
	Starting AB second half-transformation.
	Starting BB second half-transformation.
	Two-electron integral transformation complete.
	(OO|VV)...
	Starting AA second half-transformation.
	Starting AB second half-transformation.
	Starting BB second half-transformation.
	Two-electron integral transformation complete.
	(OV|OO)...
	Starting AA/AB first half-transformation.
	Sorting AA/AB half-transformed integrals.
	Starting BB first half-transformation.
	Sorting BB half-transformed integrals.
	First half integral transformation complete.
	Starting AA second half-transformation.
	Starting AB second half-transformation.
	Starting BB second half-transformation.
	Two-electron integral transformation complete.
	(OV|OV)...
	Starting AA second half-transformation.
	Starting AB second half-transformation.
	Starting BB second half-transformation.
	Two-electron integral transformation complete.
	(OV|VV)...
	Starting AA second half-transformation.
	Starting AB second half-transformation.
	Starting BB second half-transformation.
	Two-electron integral transformation complete.
	(VV|OO)...
	Starting AA/AB first half-transformation.
	Sorting AA/AB half-transformed integrals.
	Starting BB first half-transformation.
	Sorting BB half-transformed integrals.
	First half integral transformation complete.
	Starting AA second half-transformation.
	Starting AB second half-transformation.
	Starting BB second half-transformation.
	Two-electron integral transformation complete.
	(VV|OV)...
	Starting AA second half-transformation.
	Starting AB second half-transformation.
	Starting BB second half-transformation.
	Two-electron integral transformation complete.
	(VV|VV)...
	Starting AA second half-transformation.
	Starting AB second half-transformation.
	Starting BB second half-transformation.
	Two-electron integral transformation complete.
	Frozen core energy     =   -425.31933215743715

	Size of irrep 0 of <AB|CD> integrals:     70.191 (MW) /    561.527 (MB)
	Size of irrep 1 of <AB|CD> integrals:     52.606 (MW) /    420.848 (MB)
	Size of irrep 2 of <AB|CD> integrals:     62.363 (MW) /    498.901 (MB)
	Size of irrep 3 of <AB|CD> integrals:     61.575 (MW) /    492.603 (MB)
	Total:                                   246.735 (MW) /   1973.879 (MB)

	Size of irrep 0 of <ab|cd> integrals:     71.217 (MW) /    569.734 (MB)
	Size of irrep 1 of <ab|cd> integrals:     53.509 (MW) /    428.074 (MB)
	Size of irrep 2 of <ab|cd> integrals:     62.980 (MW) /    503.841 (MB)
	Size of irrep 3 of <ab|cd> integrals:     62.980 (MW) /    503.841 (MB)
	Total:                                   250.686 (MW) /   2005.489 (MB)

	Size of irrep 0 of <Ab|Cd> integrals:    291.317 (MW) /   2330.533 (MB)
	Size of irrep 1 of <Ab|Cd> integrals:    212.227 (MW) /   1697.813 (MB)
	Size of irrep 2 of <Ab|Cd> integrals:    250.684 (MW) /   2005.471 (MB)
	Size of irrep 3 of <Ab|Cd> integrals:    249.103 (MW) /   1992.825 (MB)
	Total:                                  1003.330 (MW) /   8026.642 (MB)

	Size of irrep 0 of <IA|BC> integrals:      7.670 (MW) /     61.361 (MB)
	Size of irrep 1 of <IA|BC> integrals:      4.381 (MW) /     35.046 (MB)
	Size of irrep 2 of <IA|BC> integrals:      5.575 (MW) /     44.602 (MB)
	Size of irrep 3 of <IA|BC> integrals:      6.278 (MW) /     50.221 (MB)
	Total:                                    23.904 (MW) /    191.231 (MB)

	Size of irrep 0 of <ia|bc> integrals:      6.698 (MW) /     53.583 (MB)
	Size of irrep 1 of <ia|bc> integrals:      3.526 (MW) /     28.207 (MB)
	Size of irrep 2 of <ia|bc> integrals:      4.984 (MW) /     39.870 (MB)
	Size of irrep 3 of <ia|bc> integrals:      4.984 (MW) /     39.870 (MB)
	Total:                                    20.191 (MW) /    161.530 (MB)

	Size of irrep 0 of <Ia|Bc> integrals:      7.732 (MW) /     61.854 (MB)
	Size of irrep 1 of <Ia|Bc> integrals:      4.414 (MW) /     35.313 (MB)
	Size of irrep 2 of <Ia|Bc> integrals:      5.589 (MW) /     44.712 (MB)
	Size of irrep 3 of <Ia|Bc> integrals:      6.361 (MW) /     50.884 (MB)
	Total:                                    24.096 (MW) /    192.764 (MB)

	Size of irrep 0 of <iA|bC> integrals:      6.657 (MW) /     53.252 (MB)
	Size of irrep 1 of <iA|bC> integrals:      3.496 (MW) /     27.971 (MB)
	Size of irrep 2 of <iA|bC> integrals:      4.972 (MW) /     39.772 (MB)
	Size of irrep 3 of <iA|bC> integrals:      4.909 (MW) /     39.268 (MB)
	Total:                                    20.033 (MW) /    160.263 (MB)

	Size of irrep 0 of tIjAb amplitudes:       0.205 (MW) /      1.639 (MB)
	Size of irrep 1 of tIjAb amplitudes:       0.044 (MW) /      0.350 (MB)
	Size of irrep 2 of tIjAb amplitudes:       0.095 (MW) /      0.760 (MB)
	Size of irrep 3 of tIjAb amplitudes:       0.142 (MW) /      1.136 (MB)
	Total:                                     0.486 (MW) /      3.885 (MB)

	Nuclear Rep. energy          =     42.46438953089094
	SCF energy                   =   -415.63504992683897
	One-electron energy          =    -57.84689057587722
	Two-electron (AA) energy     =      6.01296092819540
	Two-electron (BB) energy     =      4.31552500995764
	Two-electron (AB) energy     =     14.73829733742555
	Two-electron energy          =     25.06678327557859
	Reference energy             =   -415.63504992684477

*** tstop() called on n412-036.vsc4.prov at Fri Oct 30 15:15:23 2020
Module time:
	user time   =    2207.65 seconds =      36.79 minutes
	system time =      95.28 seconds =       1.59 minutes
	total time  =        377 seconds =       6.28 minutes
Total time:
	user time   =    2727.01 seconds =      45.45 minutes
	system time =     129.59 seconds =       2.16 minutes
	total time  =        698 seconds =      11.63 minutes

      * MP2 total energy                      = -416.034708214327225
      * CCSD total energy                     = -416.033727171759267
*** Psi4 exiting successfully. Buy a developer a beer!
