                               Psi4 1.2a1.dev938

  ==> Input File <==

--------------------------------------------------------------------------
# Any line starting with the # character is a comment line
memory 250000 mb
molecule molecule{
0 2
P          0.0000000000        0.0000000000        0.5093442540
O          0.0000000000        0.0000000000       -0.9860561446
}

set {
  reference uhf
  basis aug-cc-pv(d+d)z
  scf_type OUT_OF_CORE
  freeze_core true
}

energy('ccsd')
--------------------------------------------------------------------------

    Molecular point group: c2v

    Geometry (in Angstrom), charge = 0, multiplicity = 2:

       Center              X                  Y                   Z               Mass
    ------------   -----------------  -----------------  -----------------  -----------------
           P          0.000000000000     0.000000000000     0.509250070645    30.973761629000
           O          0.000000000000     0.000000000000    -0.986150327955    15.994914619560

  Charge       = 0
  Multiplicity = 2
  Basis Set: AUG-CC-PV(D+D)Z
    Blend: AUG-CC-PV(D+D)Z

    Orbital Energies (a.u.)
    -----------------------

    Alpha Occupied:

       1A1   -80.045180     2A1   -20.605138     3A1    -7.580259
       1B1    -5.480362     1B2    -5.471026     4A1    -5.470015
       5A1    -1.363356     6A1    -0.771172     2B1    -0.602326
       7A1    -0.557047     2B2    -0.525565     3B1    -0.341078

    Alpha Virtual:

       3B2    -0.004171     8A1     0.067154     9A1     0.078519
       4B1     0.092971     4B2     0.104870    10A1     0.191388
      11A1     0.243867     5B1     0.250196     5B2     0.251934
       1A2     0.259704    12A1     0.260955     6B1     0.380564
      13A1     0.392288     6B2     0.396915    14A1     0.515359
       7B1     0.661999     7B2     0.680626    15A1     0.701743
       2A2     0.801756    16A1     0.802148     8B1     0.852669
       8B2     0.860493    17A1     0.871862     3A2     1.037292
      18A1     1.037570    19A1     1.140319     9B1     1.274874
       9B2     1.284281    20A1     1.499326    10B1     1.540304
      10B2     1.555337    21A1     1.703638    22A1     2.830952
       4A2     3.577733    23A1     3.577733    11B1     3.640712
      11B2     3.642978    24A1     3.684043    25A1     4.266480
       5A2     4.266792    12B2     4.348237    12B1     4.359397
      26A1     4.406226

    Beta Occupied:

       1A1   -80.039817     2A1   -20.593051     3A1    -7.573989
       1B2    -5.468222     4A1    -5.468133     1B1    -5.453515
       5A1    -1.333452     6A1    -0.714410     2B2    -0.517082
       7A1    -0.516699     2B1    -0.501315

    Beta Virtual:

       3B2     0.007053     3B1     0.039217     8A1     0.070338
       9A1     0.082116     4B2     0.108507     4B1     0.130725
      10A1     0.198778    11A1     0.249952     5B2     0.252577
       5B1     0.257044     1A2     0.289540    12A1     0.291232
      13A1     0.396185     6B2     0.399304     6B1     0.420020
      14A1     0.530017     7B2     0.685910    15A1     0.708463
       7B1     0.718093     2A2     0.838102    16A1     0.838643
       8B2     0.861771    17A1     0.875347     8B1     0.888330
       3A2     1.045011    18A1     1.045063    19A1     1.156346
       9B2     1.286703     9B1     1.300067    20A1     1.507375
      10B2     1.559538    10B1     1.577386    21A1     1.711024
      22A1     2.837039    23A1     3.601134     4A2     3.601832
      11B2     3.647629    11B1     3.663763    24A1     3.697517
      25A1     4.272637     5A2     4.273318    12B2     4.348851
      12B1     4.366829    26A1     4.409717

    Final Occupation by Irrep:
             A1    A2    B1    B2
    DOCC [     7,    0,    2,    2 ]
    SOCC [     0,    0,    1,    0 ]

  Energy converged.

  @UHF Final Energy:  -415.58887418339947

   => Energetics <=

    Nuclear Repulsion Energy =             42.4643895308909478
    One-Electron Energy =                -659.1143172712179421
    Two-Electron Energy =                 201.0610535569275328
    PCM Polarization Energy =               0.0000000000000000
    Total Energy =                       -415.5888741833995255

    Alert: EFP and PCM quantities not currently incorporated into SCF psivars.
  UHF NO Occupations:
  HONO-2 :    2 B1 1.9966708
  HONO-1 :    7 A1 1.9937588
  HONO-0 :    3 B1 1.0000000
  LUNO+0 :    8 A1 0.0062412
  LUNO+1 :    4 B1 0.0033292
  LUNO+2 :    9 A1 0.0001238
  LUNO+3 :    3 B2 0.0000437

Properties will be evaluated at   0.000000,   0.000000,   0.000000 Bohr

Properties computed using the SCF density matrix

  Nuclear Dipole Moment: (a.u.)
     X:     0.0000      Y:     0.0000      Z:    -0.4733

  Electronic Dipole Moment: (a.u.)
     X:     0.0000      Y:     0.0000      Z:     1.5129

  Dipole Moment: (a.u.)
     X:     0.0000      Y:     0.0000      Z:     1.0397     Total:     1.0397

  Dipole Moment: (Debye)
     X:     0.0000      Y:     0.0000      Z:     2.6425     Total:     2.6425

*** tstop() called on cqc05 at Thu Aug 20 19:55:24 2020
Module time:
	user time   =       1.40 seconds =       0.02 minutes
	system time =       0.05 seconds =       0.00 minutes
	total time  =          0 seconds =       0.00 minutes
Total time:
	user time   =       1.40 seconds =       0.02 minutes
	system time =       0.05 seconds =       0.00 minutes
	total time  =          0 seconds =       0.00 minutes

*** tstart() called on cqc05
*** at Thu Aug 20 19:55:24 2020

	Wfn Parameters:
	--------------------
	Wavefunction         = CCSD
	Number of irreps     = 4
	Number of MOs        = 55
	Number of active MOs = 49
	AO-Basis             = NONE
	Semicanonical        = false
	Reference            = UHF
	Print Level          = 1

	IRREP	# MOs	# FZDC	# DOCC	# SOCC	# VIRT	# FZVR
	-----	-----	------	------	------	------	------
	 A1	   26	    4	    3	    0	    19	    0
	 A2	   5	    0	    0	    0	    5	    0
	 B1	   12	    1	    1	    1	    9	    0
	 B2	   12	    1	    1	    0	    10	    0
	Transforming integrals...
	IWL integrals will be deleted.
	(OO|OO)...
	Presorting SO-basis two-electron integrals.
	Sorting File: SO Ints (nn|nn) nbuckets = 1
	Transforming the one-electron integrals and constructing Fock matrices
	Starting AA/AB first half-transformation.
	Sorting AA/AB half-transformed integrals.
	Starting BB first half-transformation.
	Sorting BB half-transformed integrals.
	First half integral transformation complete.
	Starting AA second half-transformation.
	Starting AB second half-transformation.
	Starting BB second half-transformation.
	Two-electron integral transformation complete.
	(OO|OV)...
	Starting AA second half-transformation.
	Starting AB second half-transformation.
	Starting BB second half-transformation.
	Two-electron integral transformation complete.
	(OO|VV)...
	Starting AA second half-transformation.
	Starting AB second half-transformation.
	Starting BB second half-transformation.
	Two-electron integral transformation complete.
	(OV|OO)...
	Starting AA/AB first half-transformation.
	Sorting AA/AB half-transformed integrals.
	Starting BB first half-transformation.
	Sorting BB half-transformed integrals.
	First half integral transformation complete.
	Starting AA second half-transformation.
	Starting AB second half-transformation.
	Starting BB second half-transformation.
	Two-electron integral transformation complete.
	(OV|OV)...
	Starting AA second half-transformation.
	Starting AB second half-transformation.
	Starting BB second half-transformation.
	Two-electron integral transformation complete.
	(OV|VV)...
	Starting AA second half-transformation.
	Starting AB second half-transformation.
	Starting BB second half-transformation.
	Two-electron integral transformation complete.
	(VV|OO)...
	Starting AA/AB first half-transformation.
	Sorting AA/AB half-transformed integrals.
	Starting BB first half-transformation.
	Sorting BB half-transformed integrals.
	First half integral transformation complete.
	Starting AA second half-transformation.
	Starting AB second half-transformation.
	Starting BB second half-transformation.
	Two-electron integral transformation complete.
	(VV|OV)...
	Starting AA second half-transformation.
	Starting AB second half-transformation.
	Starting BB second half-transformation.
	Two-electron integral transformation complete.
	(VV|VV)...
	Starting AA second half-transformation.
	Starting AB second half-transformation.
	Starting BB second half-transformation.
	Two-electron integral transformation complete.
	Frozen core energy     =   -425.31231564906517

	Size of irrep 0 of <AB|CD> integrals:      0.069 (MW) /      0.549 (MB)
	Size of irrep 1 of <AB|CD> integrals:      0.034 (MW) /      0.274 (MB)
	Size of irrep 2 of <AB|CD> integrals:      0.049 (MW) /      0.391 (MB)
	Size of irrep 3 of <AB|CD> integrals:      0.055 (MW) /      0.442 (MB)
	Total:                                     0.207 (MW) /      1.655 (MB)

	Size of irrep 0 of <ab|cd> integrals:      0.073 (MW) /      0.588 (MB)
	Size of irrep 1 of <ab|cd> integrals:      0.038 (MW) /      0.304 (MB)
	Size of irrep 2 of <ab|cd> integrals:      0.058 (MW) /      0.461 (MB)
	Size of irrep 3 of <ab|cd> integrals:      0.058 (MW) /      0.461 (MB)
	Total:                                     0.227 (MW) /      1.813 (MB)

	Size of irrep 0 of <Ab|Cd> integrals:      0.332 (MW) /      2.654 (MB)
	Size of irrep 1 of <Ab|Cd> integrals:      0.144 (MW) /      1.155 (MB)
	Size of irrep 2 of <Ab|Cd> integrals:      0.213 (MW) /      1.700 (MB)
	Size of irrep 3 of <Ab|Cd> integrals:      0.226 (MW) /      1.805 (MB)
	Total:                                     0.914 (MW) /      7.315 (MB)

	Size of irrep 0 of <IA|BC> integrals:      0.048 (MW) /      0.386 (MB)
	Size of irrep 1 of <IA|BC> integrals:      0.016 (MW) /      0.130 (MB)
	Size of irrep 2 of <IA|BC> integrals:      0.031 (MW) /      0.248 (MB)
	Size of irrep 3 of <IA|BC> integrals:      0.028 (MW) /      0.222 (MB)
	Total:                                     0.123 (MW) /      0.985 (MB)

	Size of irrep 0 of <ia|bc> integrals:      0.045 (MW) /      0.361 (MB)
	Size of irrep 1 of <ia|bc> integrals:      0.014 (MW) /      0.109 (MB)
	Size of irrep 2 of <ia|bc> integrals:      0.026 (MW) /      0.207 (MB)
	Size of irrep 3 of <ia|bc> integrals:      0.026 (MW) /      0.207 (MB)
	Total:                                     0.111 (MW) /      0.885 (MB)

	Size of irrep 0 of <Ia|Bc> integrals:      0.050 (MW) /      0.401 (MB)
	Size of irrep 1 of <Ia|Bc> integrals:      0.017 (MW) /      0.137 (MB)
	Size of irrep 2 of <Ia|Bc> integrals:      0.034 (MW) /      0.269 (MB)
	Size of irrep 3 of <Ia|Bc> integrals:      0.028 (MW) /      0.224 (MB)
	Total:                                     0.129 (MW) /      1.031 (MB)

	Size of irrep 0 of <iA|bC> integrals:      0.044 (MW) /      0.350 (MB)
	Size of irrep 1 of <iA|bC> integrals:      0.013 (MW) /      0.103 (MB)
	Size of irrep 2 of <iA|bC> integrals:      0.024 (MW) /      0.188 (MB)
	Size of irrep 3 of <iA|bC> integrals:      0.026 (MW) /      0.205 (MB)
	Total:                                     0.106 (MW) /      0.847 (MB)

	Size of irrep 0 of tIjAb amplitudes:       0.007 (MW) /      0.055 (MB)
	Size of irrep 1 of tIjAb amplitudes:       0.001 (MW) /      0.009 (MB)
	Size of irrep 2 of tIjAb amplitudes:       0.004 (MW) /      0.033 (MB)
	Size of irrep 3 of tIjAb amplitudes:       0.003 (MW) /      0.023 (MB)
	Total:                                     0.015 (MW) /      0.120 (MB)

	Nuclear Rep. energy          =     42.46438953089095
	SCF energy                   =   -415.58887418339947
	One-electron energy          =    -57.73839360064467
	Two-electron (AA) energy     =      5.99034922693229
	Two-electron (BB) energy     =      4.31067222204863
	Two-electron (AB) energy     =     14.69642408643832
	Two-electron energy          =     24.99744553541924
	Reference energy             =   -415.58887418339964

*** tstop() called on cqc05 at Thu Aug 20 19:55:25 2020
Module time:
	user time   =       0.15 seconds =       0.00 minutes
	system time =       0.14 seconds =       0.00 minutes
	total time  =          1 seconds =       0.02 minutes
Total time:
	user time   =       1.55 seconds =       0.03 minutes
	system time =       0.19 seconds =       0.00 minutes
	total time  =          1 seconds =       0.02 minutes

*** tstart() called on cqc05
*** at Thu Aug 20 19:55:25 2020

            **************************
            *                        *
            *        CCENERGY        *
            *                        *
            **************************

    Nuclear Rep. energy (wfn)     =   42.464389530890948
    SCF energy          (wfn)     = -415.588874183399469
    Reference energy    (file100) = -415.588874183399639

    Input parameters:
    -----------------
    Wave function   =     CCSD
    Reference wfn   =     UHF
    Brueckner       =     No
    Memory (Mbytes) =     250000.0
    Maxiter         =     50
    R_Convergence   =     1.0e-07
    E_Convergence   =     1.0e-06
    Restart         =     Yes
    DIIS            =     Yes
    AO Basis        =     NONE
    ABCD            =     NEW
    Cache Level     =     2
    Cache Type      =     LRU
    Print Level     =     1
    Num. of threads =     4
    # Amps to Print =     10
    Print MP2 Amps? =     No
    Analyze T2 Amps =     No
    Print Pair Ener =     No
    Local CC        =     No
    SCS-MP2         =     False
    SCSN-MP2        =     False
    SCS-CCSD        =     False

MP2 correlation energy -0.3038010909056426
                Solving CC Amplitude Equations
                ------------------------------
  Iter             Energy              RMS        T1Diag      D1Diag    New D1Diag    D2Diag
  ----     ---------------------    ---------   ----------  ----------  ----------   --------
     0        -0.303801090905647    0.000e+00    0.000000    0.000000    0.000000    0.000000
     1        -0.294960664588160    1.231e-01    0.030073    0.000000    0.000000    0.000000
     2        -0.308285011526946    4.756e-02    0.026947    0.000000    0.000000    0.000000
     3        -0.313054230171901    2.464e-02    0.034494    0.000000    0.000000    0.000000
     4        -0.312836226856852    6.400e-03    0.036534    0.000000    0.000000    0.000000
     5        -0.312838258297382    2.787e-03    0.037441    0.000000    0.000000    0.000000
     6        -0.312850578492493    9.878e-04    0.037694    0.000000    0.000000    0.000000
     7        -0.312837074818913    4.268e-04    0.037758    0.000000    0.000000    0.000000
     8        -0.312837583191437    1.642e-04    0.037775    0.000000    0.000000    0.000000
     9        -0.312840239853792    7.946e-05    0.037778    0.000000    0.000000    0.000000
    10        -0.312837960194667    4.218e-05    0.037778    0.000000    0.000000    0.000000
    11        -0.312838780606592    2.030e-05    0.037774    0.000000    0.000000    0.000000
    12        -0.312838671738976    8.791e-06    0.037776    0.000000    0.000000    0.000000
    13        -0.312838644557038    3.751e-06    0.037775    0.000000    0.000000    0.000000
    14        -0.312838794295858    1.726e-06    0.037775    0.000000    0.000000    0.000000
    15        -0.312838751551533    8.130e-07    0.037775    0.000000    0.000000    0.000000
    16        -0.312838742651204    3.626e-07    0.037775    0.000000    0.000000    0.000000
    17        -0.312838747558127    1.365e-07    0.037775    0.000000    0.000000    0.000000
    18        -0.312838745361893    6.395e-08    0.037775    0.000000    0.000000    0.000000
    18        -0.312838745361893    6.395e-08    0.037775    0.000000    0.000000    0.000000

    Iterations converged.

    CCSD corr. energy   =   -0.312838745361893
    PPL corr. energy    =    0.072931417027366
    OS PPL corr. energy =    0.059558770014587
    SS PPL corr. energy =    0.013372647012781
    Largest TIA Amplitudes:
              5  33         0.0600650708
              5  34         0.0240957975
              3  26        -0.0229459338
              3  25        -0.0194022547
              2   2         0.0172743830
              2   4         0.0163916087
              5  40        -0.0149357812
              1   4        -0.0140701512
              4  24         0.0127468706
              2   5        -0.0108460421

    Largest Tia Amplitudes:
              3  24         0.0523254116
              4  34         0.0437689489
              3  25         0.0367815653
              4  35         0.0205318428
              1   2         0.0180187019
              4  41        -0.0163825293
              3  31        -0.0136357434
              1   5        -0.0123501643
              1   3        -0.0108342280
              1   0        -0.0092629118

    Largest TIJAB Amplitudes:
      5   2  33   2        -0.0261651905
      5   4  33  26         0.0242666763
      4   2  26   2         0.0199960390
      5   4  19   4         0.0178032428
      5   4  33  28         0.0156514519
      5   2  33   6         0.0155758295
      4   2  28   2         0.0147180819
      5   2  33   7         0.0145598505
      5   2  33   3         0.0145168705
      5   2  33   0         0.0140669692

    Largest Tijab Amplitudes:
      4   3  34  24        -0.0368326451
      4   3  34  25        -0.0258023360
      4   2  34   2        -0.0245997998
      3   2  24   2        -0.0198453655
      4   3  34  27         0.0175271192
      4   2  34   3         0.0170053881
      4   3  35  24        -0.0160435712
      4   2  34   6         0.0157612778
      4   3  37  24         0.0145248358
      4   3  34  26         0.0144708947

    Largest TIjAb Amplitudes:
      5   4  33  34        -0.1059058240
      2   2  33  34        -0.0640375207
      5   3  33  24        -0.0550449692
      5   4  33  35        -0.0482534227
      5   4  33  37         0.0454998527
      1   2  33  34         0.0446764129
      5   4  34  34        -0.0420298368
      5   4  36  34         0.0414796063
      1   1  33  34        -0.0408679112
      4   2  19  34        -0.0407293118

    SCF energy       (wfn)                    = -415.588874183399469
    Reference energy (file100)                = -415.588874183399639

    Opposite-spin MP2 correlation energy      =   -0.222157940957387

      * MP2 total energy                      = -415.892675274305304
      * CCSD total energy                     = -415.901712928761526
*** Psi4 exiting successfully. Buy a developer a beer!
