                               Psi4 1.2a1.dev939

  ==> Input File <==

--------------------------------------------------------------------------
# Any line starting with the # character is a comment line
memory 250000 mb
molecule molecule{
0 2
P          0.0000000000        0.0000000000        0.5093442540
O          0.0000000000        0.0000000000       -0.9860561446
}

set {
  reference uhf
  basis aug-cc-pv(6+d)z
  scf_type OUT_OF_CORE
  freeze_core true
}

energy('ccsd')
--------------------------------------------------------------------------

    Molecular point group: c2v

    Geometry (in Angstrom), charge = 0, multiplicity = 2:

       Center              X                  Y                   Z               Mass
    ------------   -----------------  -----------------  -----------------  -----------------
           P          0.000000000000     0.000000000000     0.509250070645    30.973761629000
           O          0.000000000000     0.000000000000    -0.986150327955    15.994914619560

  Charge       = 0
  Multiplicity = 2
  Basis Set: AUG-CC-PV(6+D)Z
    Blend: AUG-CC-PV(6+D)Z

    Orbital Energies (a.u.)
    -----------------------

    Alpha Occupied:

       1A1   -80.031757     2A1   -20.590756     3A1    -7.568690
       1B1    -5.470740     1B2    -5.459179     4A1    -5.457348
       5A1    -1.355977     6A1    -0.766827     2B1    -0.600768
       7A1    -0.556329     2B2    -0.527273     3B1    -0.343950

    Alpha Virtual:

       3B2    -0.004437     8A1     0.034682     9A1     0.047676
       4B1     0.048093     4B2     0.053942    10A1     0.101058
       5B2     0.106354     5B1     0.107126    11A1     0.130103
       1A2     0.135192    12A1     0.135523     6B1     0.181377
      13A1     0.181441     6B2     0.183298    14A1     0.192114
       7B1     0.219662     7B2     0.228640    15A1     0.289673
       2A2     0.327728    16A1     0.327859     8B1     0.332153
       8B2     0.332156    17A1     0.349435     3A2     0.351878
      18A1     0.361067     9B1     0.362229     9B2     0.362999
      19A1     0.404311    10B1     0.425911    10B2     0.431313
      11B1     0.461346    11B2     0.465570    20A1     0.475555
       4A2     0.477759    21A1     0.477831    22A1     0.480786
      12B1     0.559421    12B2     0.564600    23A1     0.693885
       5A2     0.693886    13B1     0.699416    13B2     0.699423
      24A1     0.712024    25A1     0.780442    14B2     0.785257
       6A2     0.785528    26A1     0.788882    14B1     0.789476
      15B1     0.807839    15B2     0.818805    27A1     0.823186
       7A2     0.876748    28A1     0.876996    16B1     0.885936
      16B2     0.886007     8A2     0.906002    29A1     0.906284
      30A1     0.927153    17B2     0.960919    17B1     0.964939
      18B2     1.009578    18B1     1.009590    31A1     1.024709
      32A1     1.029938     9A2     1.029974    19B2     1.047415
      19B1     1.050493    33A1     1.058215    20B1     1.148769
      20B2     1.154401    34A1     1.169279    21B2     1.290504
      21B1     1.292922    35A1     1.456017    10A2     1.473716
      36A1     1.474522    37A1     1.596164    22B2     1.601466
      22B1     1.601466    11A2     1.606427    38A1     1.606427
      39A1     1.719533    12A2     1.719535    23B2     1.719652
      23B1     1.719694    24B2     1.765488    40A1     1.768417
      24B1     1.770092    25B2     1.777274    13A2     1.779580
      25B1     1.780935    26B2     1.784263    41A1     1.784712
      26B1     1.792434    42A1     1.845899    43A1     1.910949
      14A2     1.911102    44A1     1.950799    15A2     1.951043
      27B2     1.953291    27B1     1.964187    28B2     1.991551
      28B1     1.991560    45A1     1.998851    46A1     2.016788
      29B2     2.116059    29B1     2.123560    30B2     2.190026
      30B1     2.193492    16A2     2.193760    47A1     2.193900
      17A2     2.285241    48A1     2.285241    49A1     2.331973
      31B2     2.403554    31B1     2.403554    32B2     2.478045
      32B1     2.485115    50A1     2.534136    18A2     2.535450
      51A1     2.550084    52A1     2.811436    19A2     2.814628
      33B2     2.815885    33B1     2.815888    53A1     2.817930
      34B2     2.871412    34B1     2.874351    54A1     3.007593
      35B2     3.040385    35B1     3.042857    55A1     3.149939
      36B2     3.336517    36B1     3.346107    20A2     3.370176
      56A1     3.370353    37B2     3.371514    37B1     3.371514
      21A2     3.373516    57A1     3.373517    22A2     3.567149
      58A1     3.567149    59A1     3.575314    38B2     3.577713
      38B1     3.577836    23A2     3.595820    60A1     3.595821
      39B2     3.629967    39B1     3.645575    40B2     3.675753
      40B1     3.675754    61A1     3.684535    24A2     3.684537
      62A1     3.725650    25A2     3.771934    63A1     3.774130
      41B2     3.781976    41B1     3.782014    42B2     3.910665
      42B1     3.928057    64A1     3.953786    26A2     3.970161
      65A1     3.977990    66A1     4.039494    27A2     4.039619
      43B2     4.063880    43B1     4.065435    44B2     4.080631
      44B1     4.094291    67A1     4.225028    45B2     4.316013
      45B1     4.316026    68A1     4.324747    46B2     4.420868
      46B1     4.434131    69A1     4.465934    28A2     4.466227
      47B2     4.587946    47B1     4.587946    70A1     4.665624
      71A1     4.917661    29A2     4.917718    48B2     5.050222
      48B1     5.065607    72A1     5.151132    30A2     5.151133
      73A1     5.166369    49B2     5.402735    49B1     5.402750
      50B2     5.417625    50B1     5.427137    74A1     5.520895
      75A1     5.568359    31A2     5.568359    51B2     5.597656
      76A1     5.604315    32A2     5.605175    51B1     5.607596
      77A1     5.642589    52B2     5.791932    52B1     5.791934
      78A1     5.947795    33A2     5.947848    53B2     5.970397
      53B1     5.980280    79A1     6.212415    54B2     6.304165
      54B1     6.304167    34A2     6.365564    80A1     6.365687
      55B2     6.533298    55B1     6.541774    81A1     6.771469
      56B2     7.051531    82A1     7.062086    35A2     7.062088
      56B1     7.067036    83A1     7.098262    57B2     7.098360
      57B1     7.098690    36A2     7.213166    84A1     7.213890
      58B2     7.390886    58B1     7.399228    85A1     7.456739
      37A2     7.456739    59B2     7.471944    59B1     7.471944
      86A1     7.531685    38A2     7.531700    87A1     7.539333
      39A2     7.539446    88A1     7.611189    60B2     7.778280
      60B1     7.797092    61B2     7.835061    61B1     7.835071
      62B2     7.854022    62B1     7.854106    89A1     7.859232
      40A2     7.859235    90A1     7.867521    91A1     7.962105
      41A2     7.965476    92A1     8.001623    63B2     8.024890
      63B1     8.024913    64B2     8.153248    64B1     8.169632
      93A1     8.425670    42A2     8.771794    94A1     8.771902
      65B2     8.870162    65B1     8.888523    66B2     8.988300
      66B1     8.988302    95A1     9.086209    43A2     9.137263
      96A1     9.137922    67B2     9.365632    67B1     9.377432
      44A2     9.403402    97A1     9.403402    68B2     9.468305
      68B1     9.468305    98A1     9.549438    69B2     9.663088
      69B1     9.675489    45A2     9.676814    99A1     9.676963
      46A2     9.927793   100A1     9.927793    70B2    10.787393
      70B1    10.800585    71B2    10.866829    71B1    10.866832
      72B2    10.888569    72B1    10.888569   101A1    10.914470
     102A1    11.188780    47A2    11.188780   103A1    11.233765
     104A1    11.503055    48A2    11.503991   105A1    11.542159
      73B2    11.569426    73B1    11.578926    74B2    11.627868
      74B1    11.627879   106A1    11.697379    49A2    11.698627
     107A1    11.731169    75B2    12.212009    75B1    12.223493
      76B2    12.571353    76B1    12.571353   108A1    12.800965
     109A1    13.089595    50A2    13.089595    51A2    13.365038
     110A1    13.365071    77B2    13.492457    77B1    13.492457
     111A1    13.955608    52A2    13.955688    78B2    14.425257
      78B1    14.437376   112A1    14.497695    79B2    14.624701
      79B1    14.637208   113A1    15.306447    53A2    15.450562
     114A1    15.450627    80B2    16.388364    80B1    16.397615
     115A1    17.145934   116A1    21.791834   117A1    22.761818
      54A2    22.761818    81B2    22.791324    81B1    22.791324
     118A1    22.968193    55A2    22.968193    82B2    23.336603
      82B1    23.336612    83B2    23.389669    83B1    23.398221
     119A1    23.512799    56A2    23.540155   120A1    23.543059
      84B2    23.647118    84B1    23.659877   121A1    24.823978
      57A2    25.915776   122A1    25.915815    85B2    26.392383
      85B1    26.397287   123A1    26.604593    86B2    26.858071
      86B1    26.858071   124A1    27.004427    58A2    27.004427
      87B2    27.153030    87B1    27.155375    88B2    27.242623
      88B1    27.242627   125A1    27.287082    59A2    27.287414
     126A1    27.507228    89B2    27.543673    89B1    27.557200
      90B2    28.641527    90B1    28.641527   127A1    29.129091
      60A2    29.129127   128A1    30.088773    91B2    30.222077
      91B1    30.235175   129A1    31.541024    61A2    31.541024
      92B2    31.766618    92B1    31.766619   130A1    32.237890
      62A2    32.239931   131A1    32.282134    93B2    32.362253
      93B1    32.377224   132A1    33.500494   133A1    35.090093
      63A2    35.090112    94B2    35.895368    94B1    35.906027
     134A1    36.305209   135A1   103.359916   136A1   215.222232

    Beta Occupied:

       1A1   -80.025932     2A1   -20.577872     3A1    -7.562498
       1B2    -5.456910     4A1    -5.455687     1B1    -5.441853
       5A1    -1.323396     6A1    -0.709739     7A1    -0.516136
       2B2    -0.512452     2B1    -0.500306

    Beta Virtual:

       3B2     0.005115     3B1     0.031359     8A1     0.036318
       9A1     0.048064     4B2     0.055984     4B1     0.075727
      10A1     0.102288     5B2     0.106557     5B1     0.108098
      11A1     0.134480     1A2     0.141066    12A1     0.142395
       6B2     0.184196    13A1     0.186025     6B1     0.189847
      14A1     0.192713     7B2     0.230362     7B1     0.247867
      15A1     0.295169    16A1     0.331636     2A2     0.332082
       8B2     0.335034     8B1     0.335070    17A1     0.359889
       9B2     0.362724     9B1     0.372461     3A2     0.374972
      18A1     0.376946    19A1     0.411486    10B2     0.433011
      10B1     0.437339    11B2     0.466586    11B1     0.477052
      20A1     0.477804    21A1     0.482363     4A2     0.484796
      22A1     0.487355    12B2     0.565448    12B1     0.583969
       5A2     0.697089    23A1     0.697089    13B2     0.701365
      13B1     0.701398    24A1     0.718354    25A1     0.781580
      14B2     0.785420     6A2     0.792912    26A1     0.795179
      14B1     0.796034    15B2     0.820490    27A1     0.826099
      15B1     0.851755     7A2     0.885175    28A1     0.886393
      16B2     0.898345    16B1     0.898565    29A1     0.926768
       8A2     0.926988    30A1     0.929734    17B2     0.961902
      17B1     0.976024    18B2     1.012696    18B1     1.012804
      31A1     1.027678     9A2     1.032346    32A1     1.035021
      19B2     1.046882    19B1     1.058089    33A1     1.067357
      20B2     1.158114    20B1     1.169188    34A1     1.174568
      21B2     1.291688    21B1     1.303686    35A1     1.460459
      10A2     1.480264    36A1     1.481922    37A1     1.606806
      22B2     1.606852    22B1     1.606852    11A2     1.610054
      38A1     1.610070    23B2     1.726187    23B1     1.726398
      39A1     1.730280    12A2     1.730304    24B2     1.765685
      40A1     1.768091    25B2     1.776982    24B1     1.779005
      25B1     1.783864    13A2     1.785988    26B2     1.787640
      41A1     1.794347    26B1     1.801274    42A1     1.849628
      43A1     1.921023    14A2     1.921224    27B2     1.954982
      44A1     1.960011    15A2     1.961006    27B1     1.976939
      45A1     2.003355    28B2     2.013233    28B1     2.013464
      46A1     2.019330    29B2     2.119308    29B1     2.150268
      30B2     2.192010    16A2     2.201175    47A1     2.201749
      30B1     2.219056    17A2     2.285607    48A1     2.285607
      49A1     2.335817    31B2     2.405414    31B1     2.405416
      32B2     2.478461    32B1     2.491193    50A1     2.534994
      18A2     2.537204    51A1     2.552767    33B2     2.817276
      33B1     2.817299    52A1     2.820800    19A2     2.828403
      53A1     2.833419    34B2     2.874671    34B1     2.888859
      54A1     3.012451    35B2     3.043409    35B1     3.057264
      55A1     3.156673    36B2     3.337409    36B1     3.353857
      37B2     3.376697    37B1     3.376697    20A2     3.376894
      56A1     3.377319    21A2     3.380976    57A1     3.380976
      22A2     3.576061    58A1     3.576061    59A1     3.580940
      38B2     3.586085    38B1     3.586907    23A2     3.606415
      60A1     3.606415    39B2     3.632414    39B1     3.661051
      40B2     3.687645    40B1     3.687652    61A1     3.693314
      24A2     3.693333    62A1     3.727566    25A2     3.778202
      63A1     3.783332    41B2     3.788842    41B1     3.788974
      42B2     3.911829    42B1     3.937365    64A1     3.954208
      26A2     3.976460    65A1     3.987592    66A1     4.045430
      27A2     4.045915    43B2     4.066812    43B1     4.070927
      44B2     4.084925    44B1     4.103604    67A1     4.230671
      68A1     4.328856    45B2     4.329060    45B1     4.329150
      46B2     4.423440    46B1     4.448863    69A1     4.474945
      28A2     4.475677    47B2     4.588360    47B1     4.588360
      70A1     4.671719    29A2     4.924141    71A1     4.924174
      48B2     5.051358    48B1     5.078813    72A1     5.152191
      30A2     5.152192    73A1     5.171676    49B2     5.407918
      49B1     5.407963    50B2     5.419944    50B1     5.438856
      74A1     5.525227    75A1     5.571422    31A2     5.571422
      51B2     5.597813    76A1     5.607181    32A2     5.608561
      51B1     5.610189    77A1     5.646164    52B2     5.795909
      52B1     5.795913    78A1     5.957626    33A2     5.957859
      53B2     5.972231    53B1     5.992015    79A1     6.218310
      54B2     6.307773    54B1     6.307777    34A2     6.372897
      80A1     6.373099    55B2     6.536588    55B1     6.555629
      81A1     6.776422    56B2     7.052249    82A1     7.073582
      35A2     7.073593    56B1     7.077194    83A1     7.100889
      57B2     7.105692    57B1     7.106797    36A2     7.218918
      84A1     7.220368    58B2     7.394110    58B1     7.413082
      85A1     7.467259    37A2     7.467259    59B2     7.479982
      59B1     7.479982    86A1     7.536783    38A2     7.536834
      87A1     7.546242    39A2     7.546586    88A1     7.615854
      60B2     7.778041    60B1     7.804752    61B2     7.845365
      61B1     7.845435    62B2     7.862097    62B1     7.862293
      89A1     7.868162    40A2     7.868189    90A1     7.873204
      91A1     7.965086    41A2     7.971125    92A1     8.009071
      63B2     8.030397    63B1     8.030453    64B2     8.154881
      64B1     8.178706    93A1     8.430981    42A2     8.777190
      94A1     8.777411    65B2     8.872341    65B1     8.899437
      66B2     8.994238    66B1     8.994244    95A1     9.089110
      43A2     9.143765    96A1     9.144927    67B2     9.369306
      67B1     9.391223    44A2     9.404534    97A1     9.404534
      68B2     9.469041    68B1     9.469041    98A1     9.553080
      69B2     9.663175    69B1     9.680655    45A2     9.681266
      99A1     9.681559    46A2     9.928939   100A1     9.928939
      70B2    10.788473    70B1    10.806731    71B2    10.868477
      71B1    10.868484    72B2    10.892344    72B1    10.892344
     101A1    10.919634   102A1    11.191770    47A2    11.191770
     103A1    11.236578   104A1    11.504396    48A2    11.505577
     105A1    11.545179    73B2    11.569802    73B1    11.581359
      74B2    11.631056    74B1    11.631075   106A1    11.699930
      49A2    11.701780   107A1    11.734403    75B2    12.213741
      75B1    12.228344    76B2    12.583507    76B1    12.583507
     108A1    12.806021   109A1    13.098062    50A2    13.098062
      51A2    13.373110   110A1    13.373177    77B2    13.498928
      77B1    13.498929   111A1    13.964869    52A2    13.965040
      78B2    14.428504    78B1    14.446540   112A1    14.502519
      79B2    14.627741    79B1    14.645884   113A1    15.312035
      53A2    15.461618   114A1    15.461825    80B2    16.391944
      80B1    16.408362   115A1    17.150622   116A1    21.799542
     117A1    22.766576    54A2    22.766576    81B2    22.795297
      81B1    22.795297   118A1    22.971583    55A2    22.971583
      82B2    23.339475    82B1    23.339490    83B2    23.394504
      83B1    23.413063   119A1    23.514366    56A2    23.542682
     120A1    23.546356    84B2    23.648799    84B1    23.664294
     121A1    24.829045    57A2    25.924555   122A1    25.924564
      85B2    26.393381    85B1    26.405811   123A1    26.608042
      86B2    26.865660    86B1    26.865660   124A1    27.010679
      58A2    27.010679    87B2    27.154595    87B1    27.169951
      88B2    27.247866    88B1    27.247878   125A1    27.291473
      59A2    27.291974   126A1    27.511174    89B2    27.546074
      89B1    27.563164    90B2    28.652947    90B1    28.652948
     127A1    29.137518    60A2    29.137589   128A1    30.093116
      91B2    30.225780    91B1    30.244573   129A1    31.550688
      61A2    31.550688    92B2    31.774322    92B1    31.774325
     130A1    32.242984    62A2    32.246425   131A1    32.288558
      93B2    32.365583    93B1    32.385161   132A1    33.503032
     133A1    35.099909    63A2    35.099956    94B2    35.898671
      94B1    35.915138   134A1    36.310064   135A1   103.363365
     136A1   215.224501

    Final Occupation by Irrep:
             A1    A2    B1    B2
    DOCC [     7,    0,    2,    2 ]
    SOCC [     0,    0,    1,    0 ]

  Energy converged.

  @UHF Final Energy:  -415.63544031559036

   => Energetics <=

    Nuclear Repulsion Energy =             42.4643895308909407
    One-Electron Energy =                -659.3872877889932624
    Two-Electron Energy =                 201.2874579425119350
    Total Energy =                       -415.6354403155904151

  UHF NO Occupations:
  HONO-2 :    2 B1 1.9963703
  HONO-1 :    7 A1 1.9923143
  HONO-0 :    3 B1 1.0000000
  LUNO+0 :    8 A1 0.0076857
  LUNO+1 :    4 B1 0.0036297
  LUNO+2 :    3 B2 0.0003748
  LUNO+3 :    9 A1 0.0001436

Properties will be evaluated at   0.000000,   0.000000,   0.000000 Bohr

Properties computed using the SCF density matrix

  Nuclear Dipole Moment: (a.u.)
     X:     0.0000      Y:     0.0000      Z:    -0.4733

  Electronic Dipole Moment: (a.u.)
     X:     0.0000      Y:     0.0000      Z:     1.5285

  Dipole Moment: (a.u.)
     X:     0.0000      Y:     0.0000      Z:     1.0552     Total:     1.0552

  Dipole Moment: (Debye)
     X:     0.0000      Y:     0.0000      Z:     2.6820     Total:     2.6820

*** tstop() called on n412-050.vsc4.prov at Sat Oct 31 13:51:50 2020
Module time:
	user time   =    1572.11 seconds =      26.20 minutes
	system time =     163.11 seconds =       2.72 minutes
	total time  =       1767 seconds =      29.45 minutes
Total time:
	user time   =    1572.11 seconds =      26.20 minutes
	system time =     163.11 seconds =       2.72 minutes
	total time  =       1767 seconds =      29.45 minutes

*** tstart() called on n412-050.vsc4.prov
*** at Sat Oct 31 13:51:50 2020

	Wfn Parameters:
	--------------------
	Wavefunction         = CCSD
	Number of irreps     = 4
	Number of MOs        = 387
	Number of active MOs = 381
	AO-Basis             = NONE
	Semicanonical        = false
	Reference            = UHF
	Print Level          = 1

	IRREP	# MOs	# FZDC	# DOCC	# SOCC	# VIRT	# FZVR
	-----	-----	------	------	------	------	------
	 A1	   136	    4	    3	    0	    129	    0
	 A2	   63	    0	    0	    0	    63	    0
	 B1	   94	    1	    1	    1	    91	    0
	 B2	   94	    1	    1	    0	    92	    0
	Transforming integrals...
	IWL integrals will be deleted.
	(OO|OO)...
	Presorting SO-basis two-electron integrals.
	Sorting File: SO Ints (nn|nn) nbuckets = 1
	Transforming the one-electron integrals and constructing Fock matrices
	Starting AA/AB first half-transformation.
	Sorting AA/AB half-transformed integrals.
	Starting BB first half-transformation.
	Sorting BB half-transformed integrals.
	First half integral transformation complete.
	Starting AA second half-transformation.
	Starting AB second half-transformation.
	Starting BB second half-transformation.
	Two-electron integral transformation complete.
	(OO|OV)...
	Starting AA second half-transformation.
	Starting AB second half-transformation.
	Starting BB second half-transformation.
	Two-electron integral transformation complete.
	(OO|VV)...
	Starting AA second half-transformation.
	Starting AB second half-transformation.
	Starting BB second half-transformation.
	Two-electron integral transformation complete.
	(OV|OO)...
	Starting AA/AB first half-transformation.
	Sorting AA/AB half-transformed integrals.
	Starting BB first half-transformation.
	Sorting BB half-transformed integrals.
	First half integral transformation complete.
	Starting AA second half-transformation.
	Starting AB second half-transformation.
	Starting BB second half-transformation.
	Two-electron integral transformation complete.
	(OV|OV)...
	Starting AA second half-transformation.
	Starting AB second half-transformation.
	Starting BB second half-transformation.
	Two-electron integral transformation complete.
	(OV|VV)...
	Starting AA second half-transformation.
	Starting AB second half-transformation.
	Starting BB second half-transformation.
	Two-electron integral transformation complete.
	(VV|OO)...
	Starting AA/AB first half-transformation.
	Sorting AA/AB half-transformed integrals.
	Starting BB first half-transformation.
	Sorting BB half-transformed integrals.

      * MP2 total energy                      = -416.039736623570207
      * CCSD total energy                     = -416.037010632603483
*** Psi4 exiting successfully. Buy a developer a beer!
