                               Psi4 1.2a1.dev938

  ==> Input File <==

--------------------------------------------------------------------------
# Any line starting with the # character is a comment line
memory 250000 mb
molecule molecule{
0 2
P          0.0000000000        0.0000000000        0.5093442540
O          0.0000000000        0.0000000000       -0.9860561446
}

set {
  reference uhf
  basis aug-cc-pv(q+d)z
  scf_type OUT_OF_CORE
  freeze_core true
}

energy('ccsd')
--------------------------------------------------------------------------

    Molecular point group: c2v

    Geometry (in Angstrom), charge = 0, multiplicity = 2:

       Center              X                  Y                   Z               Mass
    ------------   -----------------  -----------------  -----------------  -----------------
           P          0.000000000000     0.000000000000     0.509250070645    30.973761629000
           O          0.000000000000     0.000000000000    -0.986150327955    15.994914619560

  Charge       = 0
  Multiplicity = 2
  Basis Set: AUG-CC-PV(Q+D)Z
    Blend: AUG-CC-PV(Q+D)Z

    Orbital Energies (a.u.)
    -----------------------

    Alpha Occupied:

       1A1   -80.032348     2A1   -20.591766     3A1    -7.569312
       1B1    -5.470555     1B2    -5.460027     4A1    -5.457737
       5A1    -1.356446     6A1    -0.767010     2B1    -0.600908
       7A1    -0.556309     2B2    -0.527412     3B1    -0.343852

    Alpha Virtual:

       3B2    -0.004151     8A1     0.047108     9A1     0.059374
       4B1     0.064431     4B2     0.071932    10A1     0.132721
       1A2     0.151176    11A1     0.151234     5B1     0.169694
       5B2     0.170473    12A1     0.173880     6B1     0.208565
       6B2     0.211538    13A1     0.242142    14A1     0.265867
       7B1     0.343520     7B2     0.353115    15A1     0.380211
       2A2     0.399181    16A1     0.400044     8B1     0.422679
       8B2     0.422710    17A1     0.423166     3A2     0.423347
       9B1     0.468028     9B2     0.472823    18A1     0.482903
      10B1     0.536375    10B2     0.550746    19A1     0.552060
      11B1     0.625954    11B2     0.627160    20A1     0.659057
       4A2     0.659415    21A1     0.674734    22A1     0.743067
      12B2     0.987444    12B1     0.990105    23A1     0.993176
       5A2     1.036225    24A1     1.036536    13B1     1.063660
      13B2     1.071966    25A1     1.135691     6A2     1.182163
      26A1     1.182426    14B1     1.196461    14B2     1.196465
      15B2     1.201841    15B1     1.201856     7A2     1.208038
      27A1     1.208039    28A1     1.224302    16B2     1.262281
      16B1     1.266512    29A1     1.350564     8A2     1.351359
      30A1     1.375433    17B2     1.393880    17B1     1.395901
      18B2     1.540319    18B1     1.541769    19B2     1.603683
      19B1     1.603689    31A1     1.614957     9A2     1.678725
      32A1     1.678871    33A1     1.706104    20B2     1.936628
      20B1     1.941410    34A1     2.011681    35A1     2.070868
      10A2     2.083945    36A1     2.086181    21B2     2.328699
      21B1     2.331963    37A1     2.372910    22B2     2.491529
      22B1     2.500115    11A2     2.502136    38A1     2.502502
      39A1     2.944320    12A2     2.944516    23B2     2.987979
      23B1     2.987981    40A1     3.064921    41A1     3.097436
      24B2     3.123706    24B1     3.131973    25B2     3.214140
      25B1     3.215970    26B2     3.221653    26B1     3.224537
      13A2     3.262732    42A1     3.262732    14A2     3.366709
      43A1     3.366853    44A1     3.692690    15A2     3.696277
      45A1     3.696277    27B2     3.847338    27B1     3.855927
      28B2     3.996011    28B1     3.996012    46A1     4.062335
      29B2     4.202187    29B1     4.202187    47A1     4.320302
      16A2     4.320322    48A1     4.420940    30B2     4.445896
      30B1     4.453813    49A1     4.624587    17A2     4.625312
      50A1     4.657624    31B2     4.856441    31B1     4.864599
      18A2     4.879892    51A1     4.879961    32B2     5.338284
      32B1     5.341865    52A1     5.520459    53A1     5.755550
      33B2     6.348574    33B1     6.361502    54A1     7.562888
      19A2     7.563043    55A1     7.688424    34B2     7.973913
      34B1     7.984365    56A1     8.714450    57A1    10.649941
      20A2    10.649941    35B2    10.745194    35B1    10.745198
      36B2    10.937644    58A1    10.946904    36B1    10.947063
      21A2    10.947484    37B2    11.007100    37B1    11.010962
      59A1    11.031564    60A1    11.886432    38B2    11.926697
      38B1    11.926697    22A2    12.087378    61A1    12.087533
      62A1    12.449702    39B2    12.519888    39B1    12.528598
      23A2    12.885265    63A1    12.885268    40B2    13.331527
      40B1    13.337285    64A1    13.724638    65A1    17.142377
      66A1    42.723942

    Beta Occupied:

       1A1   -80.027116     2A1   -20.578791     3A1    -7.563054
       1B2    -5.457848     4A1    -5.456129     1B1    -5.442776
       5A1    -1.323788     6A1    -0.709953     7A1    -0.516166
       2B2    -0.512471     2B1    -0.500348

    Beta Virtual:

       3B2     0.005761     3B1     0.035857     8A1     0.049680
       9A1     0.060069     4B2     0.073951     4B1     0.093282
      10A1     0.135759     1A2     0.159324    11A1     0.160825
       5B2     0.171334     5B1     0.174445    12A1     0.178063
       6B2     0.212592     6B1     0.221435    13A1     0.246212
      14A1     0.270058     7B2     0.354761     7B1     0.375839
      15A1     0.385543     2A2     0.424730    16A1     0.424819
       8B2     0.428169     8B1     0.428227     3A2     0.434548
      17A1     0.437421     9B2     0.472028    18A1     0.483732
       9B1     0.486381    10B2     0.554404    19A1     0.559211
      10B1     0.573654    11B2     0.627888    11B1     0.635513
      20A1     0.662030     4A2     0.662436    21A1     0.682051
      22A1     0.748365    12B2     0.988117    23A1     0.997967
      12B1     0.999439    24A1     1.062525     5A2     1.062615
      13B2     1.073675    13B1     1.101435    25A1     1.141046
       6A2     1.195423    26A1     1.197761    14B2     1.201084
      14B1     1.201105    27A1     1.218045     7A2     1.218047
      15B2     1.223007    15B1     1.223763    28A1     1.229227
      16B2     1.265030    16B1     1.290204    29A1     1.354731
       8A2     1.358161    30A1     1.386138    17B2     1.396656
      17B1     1.421573    18B2     1.541779    18B1     1.557768
      19B2     1.606329    19B1     1.606371    31A1     1.622679
       9A2     1.684510    32A1     1.684628    33A1     1.712112
      20B2     1.938270    20B1     1.958726    34A1     2.017325
      35A1     2.075905    10A2     2.092421    36A1     2.098609
      21B2     2.330963    21B1     2.346602    37A1     2.377881
      22B2     2.492617    22B1     2.512858    11A2     2.514739
      38A1     2.516668    39A1     2.953992    12A2     2.955429
      23B2     3.009934    23B1     3.010044    40A1     3.068036
      41A1     3.106187    24B2     3.125132    24B1     3.151899
      25B2     3.216757    25B1     3.226050    26B2     3.234535
      26B1     3.251075    13A2     3.282221    42A1     3.282227
      14A2     3.376473    43A1     3.377118    15A2     3.697187
      44A1     3.697187    45A1     3.699459    27B2     3.849326
      27B1     3.869050    28B2     3.999507    28B1     3.999518
      46A1     4.069058    29B2     4.210051    29B1     4.210053
      47A1     4.330123    16A2     4.330213    48A1     4.423590
      30B2     4.446522    30B1     4.458758    49A1     4.634751
      17A2     4.636629    50A1     4.667197    31B2     4.859572
      31B1     4.879766    18A2     4.891360    51A1     4.891573
      32B2     5.342907    32B1     5.360548    52A1     5.527664
      53A1     5.762393    33B2     6.351415    33B1     6.383158
      54A1     7.570147    19A2     7.570575    55A1     7.692376
      34B2     7.974556    34B1     7.991218    56A1     8.720432
      57A1    10.658789    20A2    10.658789    35B2    10.751873
      35B1    10.751884    36B2    10.941085    58A1    10.951775
      21A2    10.952862    36B1    10.956895    37B2    11.013933
      37B1    11.034054    59A1    11.036474    60A1    11.894397
      38B2    11.943108    38B1    11.943110    22A2    12.099291
      61A1    12.099728    62A1    12.455962    39B2    12.524773
      39B1    12.541685    63A1    12.905547    23A2    12.905590
      40B2    13.337671    40B1    13.355576    64A1    13.733479
      65A1    17.147490    66A1    42.731788

    Final Occupation by Irrep:
             A1    A2    B1    B2
    DOCC [     7,    0,    2,    2 ]
    SOCC [     0,    0,    1,    0 ]

  Energy converged.

  @UHF Final Energy:  -415.63308444245172

   => Energetics <=

    Nuclear Repulsion Energy =             42.4643895308909478
    One-Electron Energy =                -659.3728266374894247
    Two-Electron Energy =                 201.2753526641468227
    PCM Polarization Energy =               0.0000000000000000
    Total Energy =                       -415.6330844424517181

    Alert: EFP and PCM quantities not currently incorporated into SCF psivars.
  UHF NO Occupations:
  HONO-2 :    2 B1 1.9963752
  HONO-1 :    7 A1 1.9923473
  HONO-0 :    3 B1 1.0000000
  LUNO+0 :    8 A1 0.0076527
  LUNO+1 :    4 B1 0.0036248
  LUNO+2 :    3 B2 0.0003848
  LUNO+3 :    9 A1 0.0001439

Properties will be evaluated at   0.000000,   0.000000,   0.000000 Bohr

Properties computed using the SCF density matrix

  Nuclear Dipole Moment: (a.u.)
     X:     0.0000      Y:     0.0000      Z:    -0.4733

  Electronic Dipole Moment: (a.u.)
     X:     0.0000      Y:     0.0000      Z:     1.5281

  Dipole Moment: (a.u.)
     X:     0.0000      Y:     0.0000      Z:     1.0549     Total:     1.0549

  Dipole Moment: (Debye)
     X:     0.0000      Y:     0.0000      Z:     2.6812     Total:     2.6812

*** tstop() called on cqc05 at Thu Aug 20 21:49:06 2020
Module time:
	user time   =      27.36 seconds =       0.46 minutes
	system time =       1.59 seconds =       0.03 minutes
	total time  =         29 seconds =       0.48 minutes
Total time:
	user time   =      27.36 seconds =       0.46 minutes
	system time =       1.59 seconds =       0.03 minutes
	total time  =         29 seconds =       0.48 minutes

*** tstart() called on cqc05
*** at Thu Aug 20 21:49:06 2020

	Wfn Parameters:
	--------------------
	Wavefunction         = CCSD
	Number of irreps     = 4
	Number of MOs        = 169
	Number of active MOs = 163
	AO-Basis             = NONE
	Semicanonical        = false
	Reference            = UHF
	Print Level          = 1

	IRREP	# MOs	# FZDC	# DOCC	# SOCC	# VIRT	# FZVR
	-----	-----	------	------	------	------	------
	 A1	   66	    4	    3	    0	    59	    0
	 A2	   23	    0	    0	    0	    23	    0
	 B1	   40	    1	    1	    1	    37	    0
	 B2	   40	    1	    1	    0	    38	    0
	Transforming integrals...
	IWL integrals will be deleted.
	(OO|OO)...
	Presorting SO-basis two-electron integrals.
	Sorting File: SO Ints (nn|nn) nbuckets = 1
	Transforming the one-electron integrals and constructing Fock matrices
	Starting AA/AB first half-transformation.
	Sorting AA/AB half-transformed integrals.
	Starting BB first half-transformation.
	Sorting BB half-transformed integrals.
	First half integral transformation complete.
	Starting AA second half-transformation.
	Starting AB second half-transformation.
	Starting BB second half-transformation.
	Two-electron integral transformation complete.
	(OO|OV)...
	Starting AA second half-transformation.
	Starting AB second half-transformation.
	Starting BB second half-transformation.
	Two-electron integral transformation complete.
	(OO|VV)...
	Starting AA second half-transformation.
	Starting AB second half-transformation.
	Starting BB second half-transformation.
	Two-electron integral transformation complete.
	(OV|OO)...
	Starting AA/AB first half-transformation.
	Sorting AA/AB half-transformed integrals.
	Starting BB first half-transformation.
	Sorting BB half-transformed integrals.
	First half integral transformation complete.
	Starting AA second half-transformation.
	Starting AB second half-transformation.
	Starting BB second half-transformation.
	Two-electron integral transformation complete.
	(OV|OV)...
	Starting AA second half-transformation.
	Starting AB second half-transformation.
	Starting BB second half-transformation.
	Two-electron integral transformation complete.
	(OV|VV)...
	Starting AA second half-transformation.
	Starting AB second half-transformation.
	Starting BB second half-transformation.
	Two-electron integral transformation complete.
	(VV|OO)...
	Starting AA/AB first half-transformation.
	Sorting AA/AB half-transformed integrals.
	Starting BB first half-transformation.
	Sorting BB half-transformed integrals.
	First half integral transformation complete.
	Starting AA second half-transformation.
	Starting AB second half-transformation.
	Starting BB second half-transformation.
	Two-electron integral transformation complete.
	(VV|OV)...
	Starting AA second half-transformation.
	Starting AB second half-transformation.
	Starting BB second half-transformation.
	Two-electron integral transformation complete.
	(VV|VV)...
	Starting AA second half-transformation.
	Starting AB second half-transformation.
	Starting BB second half-transformation.
	Two-electron integral transformation complete.
	Frozen core energy     =   -425.31888495496287

	Size of irrep 0 of <AB|CD> integrals:     11.109 (MW) /     88.871 (MB)
	Size of irrep 1 of <AB|CD> integrals:      7.634 (MW) /     61.073 (MB)
	Size of irrep 2 of <AB|CD> integrals:      9.345 (MW) /     74.762 (MB)
	Size of irrep 3 of <AB|CD> integrals:      9.567 (MW) /     76.533 (MB)
	Total:                                    37.655 (MW) /    301.240 (MB)

	Size of irrep 0 of <ab|cd> integrals:     11.357 (MW) /     90.855 (MB)
	Size of irrep 1 of <ab|cd> integrals:      7.846 (MW) /     62.765 (MB)
	Size of irrep 2 of <ab|cd> integrals:      9.709 (MW) /     77.676 (MB)
	Size of irrep 3 of <ab|cd> integrals:      9.709 (MW) /     77.676 (MB)
	Total:                                    38.621 (MW) /    308.971 (MB)

	Size of irrep 0 of <Ab|Cd> integrals:     47.060 (MW) /    376.477 (MB)
	Size of irrep 1 of <Ab|Cd> integrals:     30.958 (MW) /    247.665 (MB)
	Size of irrep 2 of <Ab|Cd> integrals:     38.106 (MW) /    304.847 (MB)
	Size of irrep 3 of <Ab|Cd> integrals:     38.552 (MW) /    308.413 (MB)
	Total:                                   154.675 (MW) /   1237.402 (MB)

	Size of irrep 0 of <IA|BC> integrals:      1.972 (MW) /     15.775 (MB)
	Size of irrep 1 of <IA|BC> integrals:      1.006 (MW) /      8.046 (MB)
	Size of irrep 2 of <IA|BC> integrals:      1.541 (MW) /     12.326 (MB)
	Size of irrep 3 of <IA|BC> integrals:      1.355 (MW) /     10.838 (MB)
	Total:                                     5.873 (MW) /     46.984 (MB)

	Size of irrep 0 of <ia|bc> integrals:      1.745 (MW) /     13.962 (MB)
	Size of irrep 1 of <ia|bc> integrals:      0.812 (MW) /      6.498 (MB)
	Size of irrep 2 of <ia|bc> integrals:      1.221 (MW) /      9.772 (MB)
	Size of irrep 3 of <ia|bc> integrals:      1.221 (MW) /      9.772 (MB)
	Total:                                     5.000 (MW) /     40.003 (MB)

	Size of irrep 0 of <Ia|Bc> integrals:      1.996 (MW) /     15.970 (MB)
	Size of irrep 1 of <Ia|Bc> integrals:      1.018 (MW) /      8.146 (MB)
	Size of irrep 2 of <Ia|Bc> integrals:      1.574 (MW) /     12.593 (MB)
	Size of irrep 3 of <Ia|Bc> integrals:      1.360 (MW) /     10.878 (MB)
	Total:                                     5.948 (MW) /     47.587 (MB)

	Size of irrep 0 of <iA|bC> integrals:      1.729 (MW) /     13.830 (MB)
	Size of irrep 1 of <iA|bC> integrals:      0.801 (MW) /      6.410 (MB)
	Size of irrep 2 of <iA|bC> integrals:      1.191 (MW) /      9.531 (MB)
	Size of irrep 3 of <iA|bC> integrals:      1.217 (MW) /      9.736 (MB)
	Total:                                     4.938 (MW) /     39.506 (MB)

	Size of irrep 0 of tIjAb amplitudes:       0.082 (MW) /      0.659 (MB)
	Size of irrep 1 of tIjAb amplitudes:       0.017 (MW) /      0.134 (MB)
	Size of irrep 2 of tIjAb amplitudes:       0.056 (MW) /      0.444 (MB)
	Size of irrep 3 of tIjAb amplitudes:       0.037 (MW) /      0.298 (MB)
	Total:                                     0.192 (MW) /      1.535 (MB)

	Nuclear Rep. energy          =     42.46438953089095
	SCF energy                   =   -415.63308444245172
	One-electron energy          =    -57.84251431468224
	Two-electron (AA) energy     =      6.01251705519910
	Two-electron (BB) energy     =      4.31479927405339
	Two-electron (AB) energy     =     14.73660896705078
	Two-electron energy          =     25.06392529630327
	Reference energy             =   -415.63308444245092

*** tstop() called on cqc05 at Thu Aug 20 21:49:32 2020
Module time:
	user time   =      15.72 seconds =       0.26 minutes
	system time =      10.32 seconds =       0.17 minutes
	total time  =         26 seconds =       0.43 minutes
Total time:
	user time   =      43.08 seconds =       0.72 minutes
	system time =      11.91 seconds =       0.20 minutes
	total time  =         55 seconds =       0.92 minutes

*** tstart() called on cqc05
*** at Thu Aug 20 21:49:32 2020

            **************************
            *                        *
            *        CCENERGY        *
            *                        *
            **************************

    Nuclear Rep. energy (wfn)     =   42.464389530890948
    SCF energy          (wfn)     = -415.633084442451718
    Reference energy    (file100) = -415.633084442450922

    Input parameters:
    -----------------
    Wave function   =     CCSD
    Reference wfn   =     UHF
    Brueckner       =     No
    Memory (Mbytes) =     250000.0
    Maxiter         =     50
    R_Convergence   =     1.0e-07
    E_Convergence   =     1.0e-06
    Restart         =     Yes
    DIIS            =     Yes
    AO Basis        =     NONE
    ABCD            =     NEW
    Cache Level     =     2
    Cache Type      =     LRU
    Print Level     =     1
    Num. of threads =     4
    # Amps to Print =     10
    Print MP2 Amps? =     No
    Analyze T2 Amps =     No
    Print Pair Ener =     No
    Local CC        =     No
    SCS-MP2         =     False
    SCSN-MP2        =     False
    SCS-CCSD        =     False

MP2 correlation energy -0.3893680773751558
                Solving CC Amplitude Equations
                ------------------------------
  Iter             Energy              RMS        T1Diag      D1Diag    New D1Diag    D2Diag
  ----     ---------------------    ---------   ----------  ----------  ----------   --------
     0        -0.389368077375166    0.000e+00    0.000000    0.000000    0.000000    0.000000
     1        -0.372424671284395    1.190e-01    0.028097    0.000000    0.000000    0.000000
     2        -0.386984123863326    4.897e-02    0.025107    0.000000    0.000000    0.000000
     3        -0.391819813298101    2.423e-02    0.032119    0.000000    0.000000    0.000000
     4        -0.391466781285370    7.205e-03    0.034553    0.000000    0.000000    0.000000
     5        -0.391470896972249    3.272e-03    0.035741    0.000000    0.000000    0.000000
     6        -0.391485202441721    1.230e-03    0.036070    0.000000    0.000000    0.000000
     7        -0.391472024489689    5.766e-04    0.036151    0.000000    0.000000    0.000000
     8        -0.391479059117372    2.625e-04    0.036182    0.000000    0.000000    0.000000
     9        -0.391484072919533    1.319e-04    0.036184    0.000000    0.000000    0.000000
    10        -0.391479586072447    6.539e-05    0.036184    0.000000    0.000000    0.000000
    11        -0.391480853541530    2.944e-05    0.036178    0.000000    0.000000    0.000000
    12        -0.391480612383360    1.315e-05    0.036180    0.000000    0.000000    0.000000
    13        -0.391480543691167    5.802e-06    0.036180    0.000000    0.000000    0.000000
    14        -0.391480773366912    2.782e-06    0.036180    0.000000    0.000000    0.000000
    15        -0.391480710723147    1.338e-06    0.036180    0.000000    0.000000    0.000000

      * MP2 total energy                      = -416.022452519826061
      * CCSD total energy                     = -416.024565138821856
*** Psi4 exiting successfully. Buy a developer a beer!
