                               Psi4 1.2a1.dev939

  ==> Input File <==

--------------------------------------------------------------------------
# Any line starting with the # character is a comment line

memory 32000 mb

molecule molecule {
0 1
S          0.0000000000        0.0000000000       -0.0547164095
H          0.0000000000       -0.9606862082        0.8701946977
H          0.0000000000        0.9606862082        0.8701946977
}

set {
  reference rhf

  basis aug-cc-pv(5+d)z
  scf_type OUT_OF_CORE
  freeze_core true
}

energy('ccsd')
--------------------------------------------------------------------------

    Molecular point group: c2v

    Geometry (in Angstrom), charge = 0, multiplicity = 1:

       Center              X                  Y                   Z               Mass
    ------------   -----------------  -----------------  -----------------  -----------------
           S         -0.000000000000     0.000000000000    -0.054852078169    31.972070999000
           H          0.000000000000    -0.960686208200     0.870059029031     1.007825032070
           H         -0.000000000000     0.960686208200     0.870059029031     1.007825032070

  Charge       = 0
  Multiplicity = 1
  Basis Set: AUG-CC-PV(5+D)Z
    Blend: AUG-CC-PV(5+D)Z

    Orbital Energies (a.u.)
    -----------------------

    Doubly Occupied:

       1A1   -91.964309     2A1    -8.966964     1B2    -6.648439
       3A1    -6.647791     1B1    -6.646829     4A1    -0.982219
       2B2    -0.591142     5A1    -0.502460     2B1    -0.385291

  @RHF Final Energy:  -398.72005687830750

   => Energetics <=

    Nuclear Repulsion Energy =             12.9735238969895263
    One-Electron Energy =                -576.7162741016580867
    Two-Electron Energy =                 165.0226933263610931
    Total Energy =                       -398.7200568783075028
      * MP2 total energy                      = -398.934533466591859
      * CCSD total energy                     = -398.953753295188960
*** Psi4 exiting successfully. Buy a developer a beer!
