                               Psi4 1.2a1.dev939

  ==> Input File <==

--------------------------------------------------------------------------
# Any line starting with the # character is a comment line
memory 250000 mb
molecule molecule{
1 2
N          0.0000000000        0.0000000000        0.5700849120
N          0.0000000000        0.0000000000       -0.5700849120
}

set {
  reference uhf
  basis aug-cc-pv(6+d)z
  scf_type OUT_OF_CORE
  freeze_core true
}

energy('ccsd')
--------------------------------------------------------------------------

    Molecular point group: d2h

    Geometry (in Angstrom), charge = 1, multiplicity = 2:

       Center              X                  Y                   Z               Mass
    ------------   -----------------  -----------------  -----------------  -----------------
           N          0.000000000000     0.000000000000     0.570084912000    14.003074004780
           N          0.000000000000     0.000000000000    -0.570084912000    14.003074004780

  Charge       = 1
  Multiplicity = 2
  Basis Set: AUG-CC-PV(6+D)Z
    Blend: AUG-CC-PV(6+D)Z

    Orbital Energies (a.u.)
    -----------------------

    Alpha Occupied:

       1Ag   -16.194674     1B1u  -16.191700     2Ag    -1.897448
       2B1u   -1.280534     3Ag    -1.139987     1B3u   -1.019092
       1B2u   -1.019092

    Alpha Virtual:

       1B2g   -0.267609     1B3g   -0.267609     4Ag    -0.117217
       3B1u   -0.090225     2B2u   -0.086687     2B3u   -0.086687
       5Ag    -0.047716     2B3g   -0.034716     2B2g   -0.034716
       4B1u    0.009843     1B1g    0.035611     6Ag     0.035611
       7Ag     0.073126     3B3u    0.083805     3B2u    0.083805
       5B1u    0.113167     8Ag     0.121660     1Au     0.126219
       6B1u    0.126219     4B2u    0.133572     4B3u    0.133572
       3B3g    0.136004     3B2g    0.136004     7B1u    0.197472
       4B3g    0.242740     4B2g    0.242740     9Ag     0.319071
       5B3u    0.352963     5B2u    0.352963     8B1u    0.354881
      10Ag     0.433048     2B1g    0.433048     6B3u    0.457118
       6B2u    0.457118     9B1u    0.463021     2Au     0.463021
      11Ag     0.484626     5B2g    0.503994     5B3g    0.503994
       3B1g    0.519188    12Ag     0.519188    10B1u    0.530061
       6B3g    0.540419     6B2g    0.540419    11B1u    0.574758
       7B2u    0.619824     7B3u    0.619824    13Ag     0.620710
       7B3g    0.776433     7B2g    0.776433     8B3u    0.790101
       8B2u    0.790101    12B1u    0.866699     3Au     0.866699
      13B1u    0.907744    14Ag     1.086444    14B1u    1.098619
       8B3g    1.150077     8B2g    1.150077    15Ag     1.233117
      16Ag     1.256662     4B1g    1.256662     9B2u    1.366006
       9B3u    1.366006    17Ag     1.392621     5B1g    1.392621
       9B2g    1.461217     9B3g    1.461217    10B2u    1.474641
      10B3u    1.474641    15B1u    1.492730    16B1u    1.517921
       4Au     1.517921    18Ag     1.522446     6B1g    1.522446
      11B3u    1.529458    11B2u    1.529458     5Au     1.548180
      17B1u    1.548180    12B2u    1.555279    12B3u    1.555279
      19Ag     1.673960     6Au     1.717963    18B1u    1.717963
      10B3g    1.748793    10B2g    1.748793    20Ag     1.890463
      19B1u    1.945069     7B1g    1.995311    21Ag     1.995311
      11B3g    1.998133    11B2g    1.998133    12B2g    2.008036
      12B3g    2.008036    13B2u    2.029506    13B3u    2.029506
      20B1u    2.061001    22Ag     2.110958    13B3g    2.170345
      13B2g    2.170345    14B2u    2.561802    14B3u    2.561802
      21B1u    2.800960     7Au     2.800960    22B1u    2.843752
      15B2u    2.957473    15B3u    2.957473    23Ag     3.185147
       8B1g    3.185147    14B3g    3.301736    14B2g    3.301736
      24Ag     3.357878    15B3g    3.381598    15B2g    3.381598
      25Ag     3.431841    26Ag     3.520021     9B1g    3.520021
      16B3u    3.531411    16B2u    3.531411    23B1u    3.591623
      16B2g    3.624690    16B3g    3.624690    24B1u    3.717249
      25B1u    3.719248     8Au     3.719248    17B3u    3.723161
      17B2u    3.723161    27Ag     3.736836    10B1g    3.736836
      26B1u    3.737984     9Au     3.737984    17B3g    3.768650
      17B2g    3.768650    28Ag     3.815474    29Ag     3.857840
      11B1g    3.857840    18B3u    3.872637    18B2u    3.872637
      19B2u    3.939292    19B3u    3.939292    27B1u    3.969441
      10Au     3.969441    18B2g    4.048316    18B3g    4.048316
      20B3u    4.094106    20B2u    4.094106    30Ag     4.216902
      12B1g    4.216902    28B1u    4.230280    11Au     4.375854
      29B1u    4.375854    21B3u    4.406359    21B2u    4.406359
      31Ag     4.514933    19B3g    4.840858    19B2g    4.840858
      32Ag     5.061537    30B1u    5.100469    12Au     5.100469
      20B3g    5.229953    20B2g    5.229953    31B1u    5.407299
      33Ag     5.464982    13B1g    5.464982    22B2u    5.485018
      22B3u    5.485018    21B2g    5.716720    21B3g    5.716720
      22B3g    5.963410    22B2g    5.963410    32B1u    6.093148
      34Ag     6.104715    23B3u    6.602167    23B2u    6.602167
      14B1g    6.621519    35Ag     6.621519    33B1u    6.639710
      13Au     6.639710    14Au     7.070456    34B1u    7.070456
      35B1u    7.138773    24B3u    7.243485    24B2u    7.243485
      15B1g    7.270157    36Ag     7.270157    37Ag     7.635888
      16B1g    7.635888    38Ag     7.664299    23B2g    7.781105
      23B3g    7.781105    24B3g    7.814424    24B2g    7.814424
      25B2u    7.824318    25B3u    7.824318    25B2g    7.889477
      25B3g    7.889477    17B1g    7.906053    39Ag     7.906053
      26B3u    7.940333    26B2u    7.940333    26B3g    8.020331
      26B2g    8.020331    40Ag     8.050242    36B1u    8.122123
      15Au     8.122123    27B2g    8.186540    27B3g    8.186540
      37B1u    8.197806    41Ag     8.244738    18B1g    8.244738
      27B3u    8.247592    27B2u    8.247592    28B3u    8.282530
      28B2u    8.282530    16Au     8.300685    38B1u    8.300685
      29B2u    8.361717    29B3u    8.361717    42Ag     8.435722
      39B1u    8.786449    17Au     8.786449    28B2g    8.920123
      28B3g    8.920123    30B2u    8.974701    30B3u    8.974701
      40B1u    8.993725    31B3u    9.351537    31B2u    9.351537
      41B1u    9.490158    42B1u    9.527596    18Au     9.527596
      43Ag     9.696831    19B1g    9.696831    44Ag     9.869116
      20B1g    9.869116    43B1u    9.960081    19Au     9.960081
      45Ag    10.249923    32B3u   10.290019    32B2u   10.290019
      29B3g   10.342145    29B2g   10.342145    46Ag    10.643454
      21B1g   10.643454    30B3g   10.732699    30B2g   10.732699
      44B1u   11.038998    20Au    11.038998    45B1u   11.177944
      21Au    11.177944    31B3g   11.237035    31B2g   11.237035
      46B1u   11.634587    47Ag    11.649862    32B3g   11.827183
      32B2g   11.827183    33B3u   11.901184    33B2u   11.901184
      33B3g   11.927174    33B2g   11.927174    48Ag    12.467311
      47B1u   12.490806    49Ag    12.790917    22B1g   12.790917
      48B1u   14.398144    22Au    14.398144    34B3u   14.467442
      34B2u   14.467442    34B3g   15.026030    34B2g   15.026030
      49B1u   15.646356    23B1g   16.369620    50Ag    16.369620
      35B3u   16.582991    35B2u   16.582991    36B3u   16.592575
      36B2u   16.592575    51Ag    16.764016    24B1g   16.764016
      50B1u   16.962117    23Au    16.962117    52Ag    17.105706
      25B1g   17.105706    53Ag    17.334030    35B2g   17.401402
      35B3g   17.401402    51B1u   17.666585    54Ag    17.822062
      37B3u   17.829614    37B2u   17.829614    38B3u   18.114490
      38B2u   18.114490    52B1u   18.235918    24Au    18.235918
      36B3g   18.240626    36B2g   18.240626    53B1u   18.367475
      25Au    18.367475    37B2g   18.757480    37B3g   18.757480
      54B1u   19.314827    39B3u   19.492247    39B2u   19.492247
      38B3g   19.593496    38B2g   19.593496    40B2u   19.681505
      40B3u   19.681505    55Ag    19.733446    26B1g   19.733446
      39B2g   19.839723    39B3g   19.839723    56Ag    20.015056
      57Ag    20.047609    27B1g   20.047609    41B2u   20.052034
      41B3u   20.052034    26Au    20.204710    55B1u   20.204710
      40B2g   20.393129    40B3g   20.393129    42B2u   20.446109
      42B3u   20.446109    56B1u   21.135084    57B1u   21.159644
      27Au    21.159644    58Ag    21.296163    59Ag    21.565929
      28B1g   21.565929    60Ag    21.850929    41B3g   21.851823
      41B2g   21.851823    42B3g   22.048651    42B2g   22.048651
      58B1u   22.800221    43B3u   22.866734    43B2u   22.866734
      29B1g   23.373746    61Ag    23.373746    44B3u   23.496844
      44B2u   23.496844    28Au    23.572901    59B1u   23.572901
      60B1u   23.621610    29Au    23.621610    43B3g   23.990608
      43B2g   23.990608    62Ag    24.275768    30B1g   24.275768
      44B2g   24.476840    44B3g   24.476840    61B1u   25.308708
      63Ag    25.449676    62B1u   25.905699    30Au    25.905699
      45B3u   26.589000    45B2u   26.589000    45B3g   27.260964
      45B2g   27.260964    64Ag    27.967764    31B1g   27.967764
      63B1u   28.238794    46B3u   29.212039    46B2u   29.212039
      64B1u   29.350732    31Au    29.350732    65Ag    31.721568
      46B3g   32.475154    46B2g   32.475154    65B1u   34.659858
      66Ag    82.197179    66B1u   82.548047

    Beta Occupied:

       1Ag   -16.174386     1B1u  -16.172553     2Ag    -1.826327
       2B1u   -1.055453     1B3u   -1.004162     1B2u   -1.004162

    Beta Virtual:

       3Ag    -0.514239     1B2g   -0.238330     1B3g   -0.238330
       4Ag    -0.106114     3B1u   -0.088753     2B3u   -0.086225
       2B2u   -0.086225     5Ag    -0.046534     2B3g   -0.033965
       2B2g   -0.033965     4B1u    0.011801     6Ag     0.035615
       1B1g    0.035615     7Ag     0.077575     3B3u    0.085372
       3B2u    0.085372     5B1u    0.116783     1Au     0.126360
       6B1u    0.126360     4B2u    0.134518     4B3u    0.134518
       3B3g    0.137661     3B2g    0.137661     8Ag     0.140090
       7B1u    0.200224     4B3g    0.243587     4B2g    0.243587
       9Ag     0.327729     5B3u    0.352902     5B2u    0.352902
       8B1u    0.407897    10Ag     0.432101     2B1g    0.432101
       9B1u    0.464234     2Au     0.464234     6B3u    0.464588
       6B2u    0.464588    11Ag     0.488609     5B2g    0.504079
       5B3g    0.504079     3B1g    0.520468    12Ag     0.520468
      10B1u    0.532926     6B3g    0.542577     6B2g    0.542577
      11B1u    0.610440     7B2u    0.624545     7B3u    0.624545
      13Ag     0.651950     7B3g    0.779624     7B2g    0.779624
       8B3u    0.804541     8B2u    0.804541    12B1u    0.868556
       3Au     0.868556    13B1u    0.959346    14B1u    1.102800
      14Ag     1.109116     8B3g    1.157614     8B2g    1.157614
      15Ag     1.241240    16Ag     1.256493     4B1g    1.256493
       9B2u    1.364959     9B3u    1.364959    17Ag     1.392103
       5B1g    1.392103     9B2g    1.462598     9B3g    1.462598
      10B2u    1.479103    10B3u    1.479103    15B1u    1.495247
      16B1u    1.519512     4Au     1.519512    18Ag     1.527226
       6B1g    1.527226    11B3u    1.530878    11B2u    1.530878
       5Au     1.548316    17B1u    1.548316    12B2u    1.587957
      12B3u    1.587957    19Ag     1.693895    18B1u    1.724417
       6Au     1.724417    10B3g    1.750051    10B2g    1.750051
      20Ag     1.919881    19B1u    1.982054    21Ag     1.999479
       7B1g    1.999479    11B3g    2.006009    11B2g    2.006009
      12B2g    2.007910    12B3g    2.007910    13B2u    2.036085
      13B3u    2.036085    20B1u    2.083538    22Ag     2.137603
      13B3g    2.189037    13B2g    2.189037    14B2u    2.573720
      14B3u    2.573720    21B1u    2.800960     7Au     2.800960
      22B1u    2.857605    15B2u    2.957210    15B3u    2.957210
      23Ag     3.185067     8B1g    3.185067    14B3g    3.316083
      14B2g    3.316083    15B2g    3.381723    15B3g    3.381723
      24Ag     3.390784    25Ag     3.448763    26Ag     3.527982
       9B1g    3.527982    16B3u    3.530220    16B2u    3.530220
      23B1u    3.611539    16B2g    3.629080    16B3g    3.629080
      24B1u    3.721627     8Au     3.721627    25B1u    3.725362
      17B3u    3.736984    17B2u    3.736984    26B1u    3.740012
       9Au     3.740012    27Ag     3.741225    10B1g    3.741225
      17B3g    3.779060    17B2g    3.779060    28Ag     3.837590
      29Ag     3.858592    11B1g    3.858592    18B3u    3.877318
      18B2u    3.877318    19B2u    3.959911    19B3u    3.959911
      27B1u    3.985783    10Au     3.985783    18B2g    4.050406
      18B3g    4.050406    20B3u    4.097370    20B2u    4.097370
      30Ag     4.229231    12B1g    4.229231    28B1u    4.258775
      29B1u    4.375321    11Au     4.375321    21B2u    4.423695
      21B3u    4.423695    31Ag     4.539856    19B3g    4.857749
      19B2g    4.857749    32Ag     5.086058    30B1u    5.101728
      12Au     5.101728    20B3g    5.247644    20B2g    5.247644
      31B1u    5.445108    33Ag     5.468556    13B1g    5.468556
      22B2u    5.501274    22B3u    5.501274    21B3g    5.717244
      21B2g    5.717244    22B3g    5.970146    22B2g    5.970146
      32B1u    6.113374    34Ag     6.133797    23B2u    6.602553
      23B3u    6.602553    14B1g    6.621321    35Ag     6.621321
      33B1u    6.647524    13Au     6.647524    14Au     7.070516
      34B1u    7.070516    35B1u    7.155690    24B3u    7.256977
      24B2u    7.256977    15B1g    7.270378    36Ag     7.270378
      37Ag     7.646248    16B1g    7.646248    38Ag     7.685181
      23B2g    7.783439    23B3g    7.783439    25B2u    7.825020
      25B3u    7.825020    24B3g    7.828744    24B2g    7.828744
      25B2g    7.896132    25B3g    7.896132    39Ag     7.910999
      17B1g    7.910999    26B3u    7.943138    26B2u    7.943138
      26B3g    8.034389    26B2g    8.034389    40Ag     8.067437
      36B1u    8.128275    15Au     8.128275    27B3g    8.186096
      27B2g    8.186096    37B1u    8.207062    27B3u    8.255751
      27B2u    8.255751    41Ag     8.258461    18B1g    8.258461
      28B3u    8.300328    28B2u    8.300328    16Au     8.310209
      38B1u    8.310209    29B2u    8.374686    29B3u    8.374686
      42Ag     8.466180    39B1u    8.797932    17Au     8.797932
      28B2g    8.928443    28B3g    8.928443    30B2u    8.979468
      30B3u    8.979468    40B1u    9.019867    31B3u    9.370886
      31B2u    9.370886    41B1u    9.508127    42B1u    9.527669
      18Au     9.527669    43Ag     9.698800    19B1g    9.698800
      44Ag     9.887263    20B1g    9.887263    43B1u    9.961718
      19Au     9.961718    45Ag    10.266147    32B2u   10.297058
      32B3u   10.297058    29B3g   10.359954    29B2g   10.359954
      46Ag    10.647026    21B1g   10.647026    30B3g   10.736729
      30B2g   10.736729    44B1u   11.043507    20Au    11.043507
      45B1u   11.190401    21Au    11.190401    31B3g   11.250595
      31B2g   11.250595    46B1u   11.656400    47Ag    11.664257
      32B3g   11.840136    32B2g   11.840136    33B3u   11.923608
      33B2u   11.923608    33B3g   11.929564    33B2g   11.929564
      48Ag    12.503558    47B1u   12.506903    49Ag    12.799086
      22B1g   12.799086    48B1u   14.405339    22Au    14.405339
      34B3u   14.485198    34B2u   14.485198    34B3g   15.044147
      34B2g   15.044147    49B1u   15.676960    23B1g   16.375092
      50Ag    16.375092    35B3u   16.590341    35B2u   16.590341
      36B3u   16.595994    36B2u   16.595994    51Ag    16.764571
      24B1g   16.764571    50B1u   16.962646    23Au    16.962646
      52Ag    17.115829    25B1g   17.115829    53Ag    17.350207
      35B2g   17.404542    35B3g   17.404542    51B1u   17.682197
      37B3u   17.844392    37B2u   17.844392    54Ag    17.846199
      38B3u   18.119007    38B2u   18.119007    52B1u   18.254054
      24Au    18.254054    36B3g   18.256080    36B2g   18.256080
      53B1u   18.374214    25Au    18.374214    37B3g   18.769823
      37B2g   18.769823    54B1u   19.333799    39B3u   19.514747
      39B2u   19.514747    38B3g   19.600649    38B2g   19.600649
      40B2u   19.682870    40B3u   19.682870    55Ag    19.740173
      26B1g   19.740173    39B2g   19.841159    39B3g   19.841159
      56Ag    20.031216    41B2u   20.063775    41B3u   20.063775
      57Ag    20.067079    27B1g   20.067079    26Au    20.210196
      55B1u   20.210196    40B2g   20.400050    40B3g   20.400050
      42B2u   20.449392    42B3u   20.449392    56B1u   21.155074
      57B1u   21.172111    27Au    21.172111    58Ag    21.309809
      59Ag    21.576918    28B1g   21.576918    41B3g   21.856528
      41B2g   21.856528    60Ag    21.875612    42B3g   22.066413
      42B2g   22.066413    58B1u   22.813713    43B3u   22.882315
      43B2u   22.882315    29B1g   23.376121    61Ag    23.376121
      44B3u   23.506484    44B2u   23.506484    28Au    23.575022
      59B1u   23.575022    60B1u   23.632721    29Au    23.632721
      43B3g   24.008229    43B2g   24.008229    62Ag    24.289051
      30B1g   24.289051    44B2g   24.484793    44B3g   24.484793
      61B1u   25.325526    63Ag    25.466896    62B1u   25.915585
      30Au    25.915585    45B3u   26.604415    45B2u   26.604415
      45B3g   27.274242    45B2g   27.274242    64Ag    27.971816
      31B1g   27.971816    63B1u   28.257688    46B3u   29.228224
      46B2u   29.228224    64B1u   29.355958    31Au    29.355958
      65Ag    31.743679    46B3g   32.488703    46B2g   32.488703
      65B1u   34.676041    66Ag    82.201981    66B1u   82.553210

    Final Occupation by Irrep:
             Ag   B1g   B2g   B3g    Au   B1u   B2u   B3u
    DOCC [     2,    0,    0,    0,    0,    2,    1,    1 ]
    SOCC [     1,    0,    0,    0,    0,    0,    0,    0 ]

  Energy converged.

  @UHF Final Energy:  -108.41034002873911

   => Energetics <=

    Nuclear Repulsion Energy =             22.7419483265591111
    One-Electron Energy =                -186.3250069159147415
    Two-Electron Energy =                  55.1727185606165236
    PCM Polarization Energy =               0.0000000000000000
    Total Energy =                       -108.4103400287391139

    Alert: EFP and PCM quantities not currently incorporated into SCF psivars.
  UHF NO Occupations:
  HONO-2 :    2 Ag 1.9994277
  HONO-1 :    2B1u 1.9910285
  HONO-0 :    3 Ag 1.0000000
  LUNO+0 :    3B1u 0.0089715
  LUNO+1 :    4 Ag 0.0005723
  LUNO+2 :    2B3u 0.0001904
  LUNO+3 :    2B2u 0.0001904

Properties will be evaluated at   0.000000,   0.000000,   0.000000 Bohr

Properties computed using the SCF density matrix

  Nuclear Dipole Moment: (a.u.)
     X:     0.0000      Y:     0.0000      Z:     0.0000

  Electronic Dipole Moment: (a.u.)
     X:     0.0000      Y:     0.0000      Z:     0.0000

  Dipole Moment: (a.u.)
     X:     0.0000      Y:     0.0000      Z:     0.0000     Total:     0.0000

  Dipole Moment: (Debye)
     X:     0.0000      Y:     0.0000      Z:     0.0000     Total:     0.0000

*** tstop() called on n412-050.vsc4.prov at Fri Oct 30 21:44:16 2020
Module time:
	user time   =     964.25 seconds =      16.07 minutes
	system time =      41.54 seconds =       0.69 minutes
	total time  =        932 seconds =      15.53 minutes
Total time:
	user time   =     964.25 seconds =      16.07 minutes
	system time =      41.54 seconds =       0.69 minutes
	total time  =        932 seconds =      15.53 minutes

*** tstart() called on n412-050.vsc4.prov
*** at Fri Oct 30 21:44:16 2020

	Wfn Parameters:
	--------------------
	Wavefunction         = CCSD
	Number of irreps     = 8
	Number of MOs        = 378
	Number of active MOs = 376
	AO-Basis             = NONE
	Semicanonical        = false
	Reference            = UHF
	Print Level          = 1

	IRREP	# MOs	# FZDC	# DOCC	# SOCC	# VIRT	# FZVR
	-----	-----	------	------	------	------	------
	 Ag	   66	    1	    1	    1	    63	    0
	 B1g	   31	    0	    0	    0	    31	    0
	 B2g	   46	    0	    0	    0	    46	    0
	 B3g	   46	    0	    0	    0	    46	    0
	 Au	   31	    0	    0	    0	    31	    0
	 B1u	   66	    1	    1	    0	    64	    0
	 B2u	   46	    0	    1	    0	    45	    0
	 B3u	   46	    0	    1	    0	    45	    0
	Transforming integrals...
	IWL integrals will be deleted.
	(OO|OO)...
	Presorting SO-basis two-electron integrals.
	Sorting File: SO Ints (nn|nn) nbuckets = 1
	Transforming the one-electron integrals and constructing Fock matrices
	Starting AA/AB first half-transformation.
	Sorting AA/AB half-transformed integrals.
	Starting BB first half-transformation.
	Sorting BB half-transformed integrals.
	First half integral transformation complete.
	Starting AA second half-transformation.
	Starting AB second half-transformation.
	Starting BB second half-transformation.
	Two-electron integral transformation complete.
	(OO|OV)...
	Starting AA second half-transformation.
	Starting AB second half-transformation.
	Starting BB second half-transformation.
	Two-electron integral transformation complete.
	(OO|VV)...
	Starting AA second half-transformation.
	Starting AB second half-transformation.
	Starting BB second half-transformation.
	Two-electron integral transformation complete.
	(OV|OO)...
	Starting AA/AB first half-transformation.
	Sorting AA/AB half-transformed integrals.
	Starting BB first half-transformation.
	Sorting BB half-transformed integrals.
	First half integral transformation complete.
	Starting AA second half-transformation.
	Starting AB second half-transformation.
	Starting BB second half-transformation.
	Two-electron integral transformation complete.
	(OV|OV)...
	Starting AA second half-transformation.
	Starting AB second half-transformation.
	Starting BB second half-transformation.
	Two-electron integral transformation complete.
	(OV|VV)...
	Starting AA second half-transformation.
	Starting AB second half-transformation.
	Starting BB second half-transformation.
	Two-electron integral transformation complete.
	(VV|OO)...
	Starting AA/AB first half-transformation.
	Sorting AA/AB half-transformed integrals.
	Starting BB first half-transformation.
	Sorting BB half-transformed integrals.
	First half integral transformation complete.

      * MP2 total energy                      = -108.840973945464242
      * CCSD total energy                     = -108.816823205705973
*** Psi4 exiting successfully. Buy a developer a beer!
