                               Psi4 1.2a1.dev939

  ==> Input File <==

--------------------------------------------------------------------------
# Any line starting with the # character is a comment line

memory 32000 mb

molecule molecule {
0 1
Si        -0.0000000000        0.0000000000        1.1731981701
Si        -0.0000000000        0.0000000000       -1.1731981701
H          1.3875820969        0.0000000000        1.6832113841
H         -0.6937910485        1.2016813458        1.6832113841
H         -0.6937910485       -1.2016813458        1.6832113841
H          0.6937910485        1.2016813458       -1.6832113841
H          0.6937910485       -1.2016813458       -1.6832113841
H         -1.3875820969        0.0000000000       -1.6832113841
}

set {
  reference rhf
  basis aug-cc-pv(T+d)z
  scf_type OUT_OF_CORE
  freeze_core true
}

energy('ccsd')
--------------------------------------------------------------------------

    Molecular point group: c2h

    Geometry (in Angstrom), charge = 0, multiplicity = 1:

       Center              X                  Y                   Z               Mass
    ------------   -----------------  -----------------  -----------------  -----------------
          SI          0.000000000000    -1.173198170100     0.000000000000    27.976926532460
          SI         -0.000000000000     1.173198170100     0.000000000000    27.976926532460
           H          0.693791048458    -1.683211384100     1.201681345786     1.007825032070
           H         -1.387582096967    -1.683211384100     0.000000000000     1.007825032070
           H          0.693791048458    -1.683211384100    -1.201681345786     1.007825032070
           H         -0.693791048458     1.683211384100     1.201681345786     1.007825032070
           H          1.387582096967     1.683211384100     0.000000000000     1.007825032070
           H         -0.693791048458     1.683211384100    -1.201681345786     1.007825032070

  Charge       = 0
  Multiplicity = 1
  Basis Set: AUG-CC-PV(T+D)Z
    Blend: AUG-CC-PV(T+D)Z

    Orbital Energies (a.u.)
    -----------------------

    Doubly Occupied:

       1Ag   -68.770134     1Bu   -68.770132     2Ag    -6.120186
       2Bu    -6.120038     3Ag    -4.226362     3Bu    -4.226108
       1Au    -4.226108     4Ag    -4.226029     1Bg    -4.226029
       4Bu    -4.225646     5Ag    -0.757168     5Bu    -0.679489
       2Au    -0.500761     6Bu    -0.500761     2Bg    -0.474416
       6Ag    -0.474416     7Ag    -0.403699

  @RHF Final Energy:  -581.37669760541519

   => Energetics <=

    Nuclear Repulsion Energy =             90.8260376510477130
    One-Electron Energy =                -986.5505017805696752
    Two-Electron Energy =                 314.3477665241067598
    Total Energy =                       -581.3766976054151883
      * MP2 total energy                      = -581.645873587650499
      * CCSD total energy                     = -581.695421273433681
*** Psi4 exiting successfully. Buy a developer a beer!
