                               Psi4 1.2a1.dev939

  ==> Input File <==

--------------------------------------------------------------------------
# Any line starting with the # character is a comment line

memory 32000 mb

molecule molecule {
0 1
Si        -0.0000000000        0.0000000000        1.1731981701
Si        -0.0000000000        0.0000000000       -1.1731981701
H          1.3875820969        0.0000000000        1.6832113841
H         -0.6937910485        1.2016813458        1.6832113841
H         -0.6937910485       -1.2016813458        1.6832113841
H          0.6937910485        1.2016813458       -1.6832113841
H          0.6937910485       -1.2016813458       -1.6832113841
H         -1.3875820969        0.0000000000       -1.6832113841
}

set {
  reference rhf
  basis aug-cc-pv(Q+d)z
  scf_type OUT_OF_CORE
  freeze_core true
}

energy('ccsd')
--------------------------------------------------------------------------

    Molecular point group: c2h

    Geometry (in Angstrom), charge = 0, multiplicity = 1:

       Center              X                  Y                   Z               Mass
    ------------   -----------------  -----------------  -----------------  -----------------
          SI          0.000000000000    -1.173198170100     0.000000000000    27.976926532460
          SI         -0.000000000000     1.173198170100     0.000000000000    27.976926532460
           H          0.693791048458    -1.683211384100     1.201681345786     1.007825032070
           H         -1.387582096967    -1.683211384100     0.000000000000     1.007825032070
           H          0.693791048458    -1.683211384100    -1.201681345786     1.007825032070
           H         -0.693791048458     1.683211384100     1.201681345786     1.007825032070
           H          1.387582096967     1.683211384100     0.000000000000     1.007825032070
           H         -0.693791048458     1.683211384100    -1.201681345786     1.007825032070

  Charge       = 0
  Multiplicity = 1
  Basis Set: AUG-CC-PV(Q+D)Z
    Blend: AUG-CC-PV(Q+D)Z

    Orbital Energies (a.u.)
    -----------------------

    Doubly Occupied:

       1Ag   -68.767899     1Bu   -68.767898     2Ag    -6.118506
       2Bu    -6.118359     3Ag    -4.224905     1Au    -4.224574
       3Bu    -4.224574     1Bg    -4.224495     4Ag    -4.224495
       4Bu    -4.224190     5Ag    -0.756911     5Bu    -0.679291
       2Au    -0.500884     6Bu    -0.500884     2Bg    -0.474560
       6Ag    -0.474560     7Ag    -0.403768

  @RHF Final Energy:  -581.38340621015016

   => Energetics <=

    Nuclear Repulsion Energy =             90.8260376510477130
    One-Electron Energy =                -986.5973851351465100
    Two-Electron Energy =                 314.3879412739486270
    Total Energy =                       -581.3834062101501559
      * MP2 total energy                      = -581.668826861367961
      * CCSD total energy                     = -581.714180533703370
*** Psi4 exiting successfully. Buy a developer a beer!
