                               Psi4 1.4a3.dev88

  ==> Input File <==

--------------------------------------------------------------------------
# Any line starting with the # character is a comment line
memory 250000 mb
molecule molecule{
0 1
O          0.0000000000        0.0000000000       -0.4883910965
C          0.0000000000        0.0000000000        0.6505673556
}

set {
  reference rhf
  basis aug-cc-pV(d+d)Z
  scf_type OUT_OF_CORE
  freeze_core true
}

energy('ccsd(t)')
--------------------------------------------------------------------------

    Molecular point group: c2v

    Geometry (in Angstrom), charge = 0, multiplicity = 1:

       Center              X                  Y                   Z               Mass
    ------------   -----------------  -----------------  -----------------  -----------------
         O            0.000000000000     0.000000000000    -0.488213720632    15.994914619570
         C            0.000000000000     0.000000000000     0.650744731468    12.000000000000

  Charge       = 0
  Multiplicity = 1
  Basis Set: AUG-CC-PV(D+D)Z
    Blend: AUG-CC-PV(D+D)Z

    Orbital Energies [Eh]
    ---------------------

    Doubly Occupied:

       1A1   -20.678816     2A1   -11.378270     3A1    -1.522478
       4A1    -0.807385     1B1    -0.636407     1B2    -0.636407
       5A1    -0.555917

  @RHF Final Energy:  -112.75348880300045

   => Energetics <=

    Nuclear Repulsion Energy =             22.3015212410310575
    One-Electron Energy =                -197.6786578724041021
    Two-Electron Energy =                  62.6236478283725972
    Total Energy =                       -112.7534888030004510

  Dipole Moment: [D]
     X:     0.0000      Y:     0.0000      Z:     0.3122     Total:     0.3122

      * MP2 total energy                      = -113.054712247076580
      * CCSD total energy                     = -113.061307535585868
      * CCSD(T) total energy                  = -113.073990695286227
*** Psi4 exiting successfully. Buy a developer a beer!
