                               Psi4 1.4a3.dev88

  ==> Input File <==

--------------------------------------------------------------------------
# Any line starting with the # character is a comment line
memory 250000 mb
molecule molecule{
0 1
O          0.0000000000        0.0000000000       -0.4883910965
C          0.0000000000        0.0000000000        0.6505673556
}

set {
  reference rhf
  basis aug-cc-pv(q+d)z
  scf_type OUT_OF_CORE
  freeze_core true
}

energy('ccsd(t)')
--------------------------------------------------------------------------

    Molecular point group: c2v

    Geometry (in Angstrom), charge = 0, multiplicity = 1:

       Center              X                  Y                   Z               Mass
    ------------   -----------------  -----------------  -----------------  -----------------
         O            0.000000000000     0.000000000000    -0.488213720632    15.994914619570
         C            0.000000000000     0.000000000000     0.650744731468    12.000000000000

  Charge       = 0
  Multiplicity = 1
  Basis Set: AUG-CC-PV(Q+D)Z
    Blend: AUG-CC-PV(Q+D)Z

    Orbital Energies [Eh]
    ---------------------

    Doubly Occupied:

       1A1   -20.665722     2A1   -11.365273     3A1    -1.514406
       4A1    -0.803695     1B1    -0.635728     1B2    -0.635727
       5A1    -0.556139

  @RHF Final Energy:  -112.78738968430680

   => Energetics <=

    Nuclear Repulsion Energy =             22.3015212410310575
    One-Electron Energy =                -197.8244402284744297
    Two-Electron Energy =                  62.7355293031365804
    Total Energy =                       -112.7873896843067882

  Dipole Moment: [D]
     X:     0.0000      Y:     0.0000      Z:     0.3185     Total:     0.3185

      * MP2 total energy                      = -113.172892895043248
      * CCSD total energy                     = -113.171183312858290
      * CCSD(T) total energy                  = -113.190262117756646
*** Psi4 exiting successfully. Buy a developer a beer!
