                               Psi4 1.4a3.dev88

  ==> Input File <==

--------------------------------------------------------------------------
# Any line starting with the # character is a comment line
memory 250000 mb
molecule molecule{
0 1
O          0.0000000000        0.0000000000       -0.4883910965
C          0.0000000000        0.0000000000        0.6505673556
}

set {
  reference rhf
  basis aug-cc-pV(t+d)Z
  scf_type OUT_OF_CORE
  freeze_core true
}

energy('ccsd(t)')
--------------------------------------------------------------------------

    Molecular point group: c2v

    Geometry (in Angstrom), charge = 0, multiplicity = 1:

       Center              X                  Y                   Z               Mass
    ------------   -----------------  -----------------  -----------------  -----------------
         O            0.000000000000     0.000000000000    -0.488213720632    15.994914619570
         C            0.000000000000     0.000000000000     0.650744731468    12.000000000000

  Charge       = 0
  Multiplicity = 1
  Basis Set: AUG-CC-PV(T+D)Z
    Blend: AUG-CC-PV(T+D)Z

    Orbital Energies [Eh]
    ---------------------

    Doubly Occupied:

       1A1   -20.668604     2A1   -11.366733     3A1    -1.515673
       4A1    -0.803994     1B2    -0.635893     1B1    -0.635893
       5A1    -0.556154

  @RHF Final Energy:  -112.77988881101955

   => Energetics <=

    Nuclear Repulsion Energy =             22.3015212410310575
    One-Electron Energy =                -197.7969323020538752
    Two-Electron Energy =                  62.7155222500032750
    Total Energy =                       -112.7798888110195463

  Dipole Moment: [D]
     X:     0.0000      Y:     0.0000      Z:     0.3202     Total:     0.3202

      * MP2 total energy                      = -113.142411139269001
      * CCSD total energy                     = -113.144289504114624
      * CCSD(T) total energy                  = -113.162174624347060
*** Psi4 exiting successfully. Buy a developer a beer!
