                               Psi4 1.4a3.dev88

  ==> Input File <==

--------------------------------------------------------------------------
# Any line starting with the # character is a comment line
memory 250000 mb
molecule molecule{
0 1
O          0.0000000000        0.0000000000       -0.4883910965
C          0.0000000000        0.0000000000        0.6505673556
}

set {
  reference rhf
  basis aug-cc-pV(5+d)Z
  scf_type OUT_OF_CORE
  freeze_core true
}

energy('ccsd(t)')
--------------------------------------------------------------------------

    Molecular point group: c2v

    Geometry (in Angstrom), charge = 0, multiplicity = 1:

       Center              X                  Y                   Z               Mass
    ------------   -----------------  -----------------  -----------------  -----------------
         O            0.000000000000     0.000000000000    -0.488213720632    15.994914619570
         C            0.000000000000     0.000000000000     0.650744731468    12.000000000000

  Charge       = 0
  Multiplicity = 1
  Basis Set: AUG-CC-PV(5+D)Z
    Blend: AUG-CC-PV(5+D)Z

    Orbital Energies [Eh]
    ---------------------

    Doubly Occupied:

       1A1   -20.664956     2A1   -11.364949     3A1    -1.514099
       4A1    -0.803600     1B2    -0.635706     1B1    -0.635706
       5A1    -0.556136

  @RHF Final Energy:  -112.78900097952247

   => Energetics <=

    Nuclear Repulsion Energy =             22.3015212410310575
    One-Electron Energy =                -197.8307378401085828
    Two-Electron Energy =                  62.7402156195550589
    Total Energy =                       -112.7890009795224699

  Dipole Moment: [D]
     X:     0.0000      Y:     0.0000      Z:     0.3182     Total:     0.3182

      * MP2 total energy                      = -113.183909167945814
      * CCSD total energy                     = -113.179588730290405
      * CCSD(T) total energy                  = -113.199137549165030
*** Psi4 exiting successfully. Buy a developer a beer!
