                               Psi4 1.2a1.dev939

  ==> Input File <==

--------------------------------------------------------------------------
# Any line starting with the # character is a comment line

memory 32000 mb

molecule molecule {
0 1
N         -0.0000000000        0.0000000000        0.0674754640
H          0.9380664748        0.0000000000       -0.3125545110
H         -0.4690332374        0.8123893976       -0.3125545110
H         -0.4690332374       -0.8123893976       -0.3125545110
}

set {
  reference rhf
  basis aug-cc-pv(T+d)z
  scf_type OUT_OF_CORE
  freeze_core true
}

energy('ccsd')
--------------------------------------------------------------------------

    Molecular point group: cs

    Geometry (in Angstrom), charge = 0, multiplicity = 1:

       Center              X                  Y                   Z               Mass
    ------------   -----------------  -----------------  -----------------  -----------------
           N         -0.000000000000    -0.067483502289     0.000000000000    14.003074004780
           H         -0.469033237393     0.312546472711     0.812389397611     1.007825032070
           H         -0.469033237393     0.312546472711    -0.812389397611     1.007825032070
           H          0.938066474787     0.312546472711     0.000000000000     1.007825032070

  Charge       = 0
  Multiplicity = 1
  Basis Set: AUG-CC-PV(T+D)Z
    Blend: AUG-CC-PV(T+D)Z

    Orbital Energies (a.u.)
    -----------------------

    Doubly Occupied:

       1Ap   -15.541724     2Ap    -1.142446     1App   -0.628830
       3Ap    -0.628830     4Ap    -0.429333

  @RHF Final Energy:   -56.22032425199860

   => Energetics <=

    Nuclear Repulsion Energy =             11.9566989458572372
    One-Electron Energy =                 -99.6117179627533602
    Two-Electron Energy =                  31.4346947648975181
    Total Energy =                        -56.2203242519986048
      * MP2 total energy                      =  -56.460540921265746
      * CCSD total energy                     =  -56.472209483826731
*** Psi4 exiting successfully. Buy a developer a beer!
