                               Psi4 1.4a3.dev88

  ==> Input File <==

--------------------------------------------------------------------------
# Any line starting with the # character is a comment line
memory 250000 mb
molecule molecule{
1 2
N          0.0000000000        0.0000000000        0.5700849120
N          0.0000000000        0.0000000000       -0.5700849120
}

set {
  reference uhf
  basis aug-cc-pV(d+d)Z
  scf_type OUT_OF_CORE
  freeze_core true
}

energy('ccsd(t)')
--------------------------------------------------------------------------

    Molecular point group: d2h

    Geometry (in Angstrom), charge = 1, multiplicity = 2:

       Center              X                  Y                   Z               Mass
    ------------   -----------------  -----------------  -----------------  -----------------
         N            0.000000000000     0.000000000000     0.570084912000    14.003074004430
         N            0.000000000000     0.000000000000    -0.570084912000    14.003074004430

  Charge       = 1
  Multiplicity = 2
  Basis Set: AUG-CC-PV(D+D)Z
    Blend: AUG-CC-PV(D+D)Z

    Orbital Energies [Eh]
    ---------------------

    Alpha Occupied:

       1Ag   -16.208204     1B1u  -16.205309     2Ag    -1.903439
       2B1u   -1.283057     3Ag    -1.139135     1B2u   -1.020457
       1B3u   -1.020457

    Alpha Virtual:

       1B3g   -0.269790     1B2g   -0.269790     4Ag    -0.090607
       3B1u   -0.075145     2B2u   -0.057011     2B3u   -0.057011
       5Ag    -0.011428     2B3g    0.019028     2B2g    0.019028
       4B1u    0.117793     6Ag     0.278668     1B1g    0.278668
       5B1u    0.307610     7Ag     0.394773     3B3u    0.476691
       3B2u    0.476691     6B1u    0.559324     1Au     0.559324
       3B2g    0.643867     3B3g    0.643867     7B1u    0.653203
       4B2u    0.724370     4B3u    0.724370     8Ag     0.772511
       8B1u    0.830477     4B3g    1.042953     4B2g    1.042953
       9Ag     1.511340     5B3u    1.769636     5B2u    1.769636
      10Ag     1.867615     2B1g    1.867615     9B1u    2.230241
       2Au     2.230241    11Ag     2.435995    10B1u    2.641139
       5B3g    2.655150     5B2g    2.655150    11B1u    2.782442

    Beta Occupied:

       1Ag   -16.187658     1B1u  -16.185850     2Ag    -1.837052
       2B1u   -1.058155     1B3u   -1.004832     1B2u   -1.004832

    Beta Virtual:

       3Ag    -0.518763     1B3g   -0.239611     1B2g   -0.239611
       3B1u   -0.072805     4Ag    -0.071744     2B3u   -0.056002
       2B2u   -0.056002     5Ag    -0.008105     2B2g    0.021214
       2B3g    0.021214     4B1u    0.122290     6Ag     0.278764
       1B1g    0.278764     5B1u    0.361809     7Ag     0.417613
       3B3u    0.494855     3B2u    0.494855     6B1u    0.562462
       1Au     0.562462     3B2g    0.652595     3B3g    0.652595
       7B1u    0.672081     4B3u    0.732529     4B2u    0.732529
       8Ag     0.842766     8B1u    0.919668     4B2g    1.049580
       4B3g    1.049580     9Ag     1.536600     5B3u    1.825936
       5B2u    1.825936    10Ag     1.873950     2B1g    1.873950
       9B1u    2.237729     2Au     2.237729    11Ag     2.492134
      10B1u    2.663252     5B2g    2.700167     5B3g    2.700167
      11B1u    2.850426

    Final Occupation by Irrep:
             Ag   B1g   B2g   B3g    Au   B1u   B2u   B3u
    DOCC [     2,    0,    0,    0,    0,    2,    1,    1 ]
    SOCC [     1,    0,    0,    0,    0,    0,    0,    0 ]

  @UHF Final Energy:  -108.37807819711516

   => Energetics <=

    Nuclear Repulsion Energy =             22.7419484159493095
    One-Electron Energy =                -186.1816152907604760
    Two-Electron Energy =                  55.0615886776960082
    Total Energy =                       -108.3780781971151583

  UHF NO Occupations:
  HONO-2 :    2 Ag 1.9995463
  HONO-1 :    2B1u 1.9913156
  HONO-0 :    3 Ag 1.0000000
  LUNO+0 :    3B1u 0.0086844
  LUNO+1 :    4 Ag 0.0004537
  LUNO+2 :    2B2u 0.0001686
  LUNO+3 :    2B3u 0.0001686

Computation Completed

Properties will be evaluated at   0.000000,   0.000000,   0.000000 [a0]

Properties computed using the SCF density matrix

  Nuclear Dipole Moment: [e a0]
     X:     0.0000      Y:     0.0000      Z:     0.0000

  Electronic Dipole Moment: [e a0]
     X:     0.0000      Y:     0.0000      Z:     0.0000

  Dipole Moment: [e a0]
     X:     0.0000      Y:     0.0000      Z:     0.0000     Total:     0.0000

  Dipole Moment: [D]
     X:     0.0000      Y:     0.0000      Z:     0.0000     Total:     0.0000

*** tstop() called on n412-039.vsc4.prov at Tue Jan 26 18:31:41 2021
Module time:
	user time   =      11.44 seconds =       0.19 minutes
	system time =       0.89 seconds =       0.01 minutes
	total time  =          1 seconds =       0.02 minutes
Total time:
	user time   =      11.44 seconds =       0.19 minutes
	system time =       0.89 seconds =       0.01 minutes
	total time  =          1 seconds =       0.02 minutes

*** tstart() called on n412-039.vsc4.prov
*** at Tue Jan 26 18:31:41 2021

	Wfn Parameters:
	--------------------
	Wavefunction         = CCSD_T
	Number of irreps     = 8
	Number of MOs        = 46
	Number of active MOs = 44
	AO-Basis             = NONE
	Semicanonical        = false
	Reference            = UHF
	Print Level          = 1

	IRREP	# MOs	# FZDC	# DOCC	# SOCC	# VIRT	# FZVR
	-----	-----	------	------	------	------	------
	 Ag	   11	    1	    1	    1	    8	    0
	 B1g	   2	    0	    0	    0	    2	    0
	 B2g	   5	    0	    0	    0	    5	    0
	 B3g	   5	    0	    0	    0	    5	    0
	 Au	   2	    0	    0	    0	    2	    0
	 B1u	   11	    1	    1	    0	    9	    0
	 B2u	   5	    0	    1	    0	    4	    0
	 B3u	   5	    0	    1	    0	    4	    0
	Transforming integrals...
	IWL integrals will be deleted.
	(OO|OO)...
	Presorting SO-basis two-electron integrals.
	Sorting File: SO Ints (nn|nn) nbuckets = 1
	Constructing frozen core operators
	Starting AA/AB first half-transformation.
	Sorting AA/AB half-transformed integrals.
	Starting BB first half-transformation.
	Sorting BB half-transformed integrals.
	First half integral transformation complete.
	Starting AA second half-transformation.
	Starting AB second half-transformation.
	Starting BB second half-transformation.
	Two-electron integral transformation complete.
	(OO|OV)...
	Starting AA second half-transformation.
	Starting AB second half-transformation.
	Starting BB second half-transformation.
	Two-electron integral transformation complete.
	(OO|VV)...
	Starting AA second half-transformation.
	Starting AB second half-transformation.
	Starting BB second half-transformation.
	Two-electron integral transformation complete.
	(OV|OO)...
	Starting AA/AB first half-transformation.
	Sorting AA/AB half-transformed integrals.
	Starting BB first half-transformation.
	Sorting BB half-transformed integrals.
	First half integral transformation complete.
	Starting AA second half-transformation.
	Starting AB second half-transformation.
	Starting BB second half-transformation.
	Two-electron integral transformation complete.
	(OV|OV)...
	Starting AA second half-transformation.
	Starting AB second half-transformation.
	Starting BB second half-transformation.
	Two-electron integral transformation complete.
	(OV|VV)...
	Starting AA second half-transformation.
	Starting AB second half-transformation.
	Starting BB second half-transformation.
	Two-electron integral transformation complete.
	(VV|OO)...
	Starting AA/AB first half-transformation.
	Sorting AA/AB half-transformed integrals.
	Starting BB first half-transformation.
	Sorting BB half-transformed integrals.
	First half integral transformation complete.
	Starting AA second half-transformation.
	Starting AB second half-transformation.
	Starting BB second half-transformation.
	Two-electron integral transformation complete.
	(VV|OV)...
	Starting AA second half-transformation.
	Starting AB second half-transformation.
	Starting BB second half-transformation.
	Two-electron integral transformation complete.
	(VV|VV)...
	Starting AA second half-transformation.
	Starting AB second half-transformation.
	Starting BB second half-transformation.
	Two-electron integral transformation complete.
	Frozen core energy     =   -100.60502658196158

	Size of irrep 0 of <AB|CD> integrals:      0.010 (MW) /      0.077 (MB)
	Size of irrep 1 of <AB|CD> integrals:      0.006 (MW) /      0.045 (MB)
	Size of irrep 2 of <AB|CD> integrals:      0.009 (MW) /      0.071 (MB)
	Size of irrep 3 of <AB|CD> integrals:      0.009 (MW) /      0.071 (MB)
	Size of irrep 4 of <AB|CD> integrals:      0.005 (MW) /      0.044 (MB)
	Size of irrep 5 of <AB|CD> integrals:      0.013 (MW) /      0.108 (MB)
	Size of irrep 6 of <AB|CD> integrals:      0.009 (MW) /      0.072 (MB)
	Size of irrep 7 of <AB|CD> integrals:      0.009 (MW) /      0.072 (MB)
	Total:                                     0.070 (MW) /      0.559 (MB)

	Size of irrep 0 of <ab|cd> integrals:      0.011 (MW) /      0.090 (MB)
	Size of irrep 1 of <ab|cd> integrals:      0.006 (MW) /      0.047 (MB)
	Size of irrep 2 of <ab|cd> integrals:      0.010 (MW) /      0.078 (MB)
	Size of irrep 3 of <ab|cd> integrals:      0.010 (MW) /      0.078 (MB)
	Size of irrep 4 of <ab|cd> integrals:      0.006 (MW) /      0.046 (MB)
	Size of irrep 5 of <ab|cd> integrals:      0.016 (MW) /      0.125 (MB)
	Size of irrep 6 of <ab|cd> integrals:      0.010 (MW) /      0.078 (MB)
	Size of irrep 7 of <ab|cd> integrals:      0.010 (MW) /      0.078 (MB)
	Total:                                     0.078 (MW) /      0.622 (MB)

	Size of irrep 0 of <Ab|Cd> integrals:      0.059 (MW) /      0.472 (MB)
	Size of irrep 1 of <Ab|Cd> integrals:      0.023 (MW) /      0.185 (MB)
	Size of irrep 2 of <Ab|Cd> integrals:      0.037 (MW) /      0.298 (MB)
	Size of irrep 3 of <Ab|Cd> integrals:      0.037 (MW) /      0.298 (MB)
	Size of irrep 4 of <Ab|Cd> integrals:      0.022 (MW) /      0.180 (MB)
	Size of irrep 5 of <Ab|Cd> integrals:      0.058 (MW) /      0.465 (MB)
	Size of irrep 6 of <Ab|Cd> integrals:      0.038 (MW) /      0.301 (MB)
	Size of irrep 7 of <Ab|Cd> integrals:      0.038 (MW) /      0.301 (MB)
	Total:                                     0.313 (MW) /      2.500 (MB)

	Size of irrep 0 of <IA|BC> integrals:      0.008 (MW) /      0.062 (MB)
	Size of irrep 1 of <IA|BC> integrals:      0.002 (MW) /      0.017 (MB)
	Size of irrep 2 of <IA|BC> integrals:      0.005 (MW) /      0.038 (MB)
	Size of irrep 3 of <IA|BC> integrals:      0.005 (MW) /      0.038 (MB)
	Size of irrep 4 of <IA|BC> integrals:      0.002 (MW) /      0.019 (MB)
	Size of irrep 5 of <IA|BC> integrals:      0.008 (MW) /      0.067 (MB)
	Size of irrep 6 of <IA|BC> integrals:      0.004 (MW) /      0.035 (MB)
	Size of irrep 7 of <IA|BC> integrals:      0.004 (MW) /      0.035 (MB)
	Total:                                     0.039 (MW) /      0.310 (MB)

	Size of irrep 0 of <ia|bc> integrals:      0.007 (MW) /      0.052 (MB)
	Size of irrep 1 of <ia|bc> integrals:      0.002 (MW) /      0.015 (MB)
	Size of irrep 2 of <ia|bc> integrals:      0.004 (MW) /      0.032 (MB)
	Size of irrep 3 of <ia|bc> integrals:      0.004 (MW) /      0.032 (MB)
	Size of irrep 4 of <ia|bc> integrals:      0.002 (MW) /      0.017 (MB)
	Size of irrep 5 of <ia|bc> integrals:      0.007 (MW) /      0.056 (MB)
	Size of irrep 6 of <ia|bc> integrals:      0.004 (MW) /      0.032 (MB)
	Size of irrep 7 of <ia|bc> integrals:      0.004 (MW) /      0.032 (MB)
	Total:                                     0.033 (MW) /      0.267 (MB)

	Size of irrep 0 of <Ia|Bc> integrals:      0.009 (MW) /      0.068 (MB)
	Size of irrep 1 of <Ia|Bc> integrals:      0.002 (MW) /      0.017 (MB)
	Size of irrep 2 of <Ia|Bc> integrals:      0.005 (MW) /      0.039 (MB)
	Size of irrep 3 of <Ia|Bc> integrals:      0.005 (MW) /      0.039 (MB)
	Size of irrep 4 of <Ia|Bc> integrals:      0.002 (MW) /      0.019 (MB)
	Size of irrep 5 of <Ia|Bc> integrals:      0.009 (MW) /      0.071 (MB)
	Size of irrep 6 of <Ia|Bc> integrals:      0.005 (MW) /      0.037 (MB)
	Size of irrep 7 of <Ia|Bc> integrals:      0.005 (MW) /      0.037 (MB)
	Total:                                     0.041 (MW) /      0.327 (MB)

	Size of irrep 0 of <iA|bC> integrals:      0.006 (MW) /      0.049 (MB)
	Size of irrep 1 of <iA|bC> integrals:      0.002 (MW) /      0.015 (MB)
	Size of irrep 2 of <iA|bC> integrals:      0.004 (MW) /      0.031 (MB)
	Size of irrep 3 of <iA|bC> integrals:      0.004 (MW) /      0.031 (MB)
	Size of irrep 4 of <iA|bC> integrals:      0.002 (MW) /      0.017 (MB)
	Size of irrep 5 of <iA|bC> integrals:      0.007 (MW) /      0.052 (MB)
	Size of irrep 6 of <iA|bC> integrals:      0.004 (MW) /      0.029 (MB)
	Size of irrep 7 of <iA|bC> integrals:      0.004 (MW) /      0.029 (MB)
	Total:                                     0.032 (MW) /      0.253 (MB)

	Size of irrep 0 of tIjAb amplitudes:       0.001 (MW) /      0.010 (MB)
	Size of irrep 1 of tIjAb amplitudes:       0.000 (MW) /      0.002 (MB)
	Size of irrep 2 of tIjAb amplitudes:       0.000 (MW) /      0.003 (MB)
	Size of irrep 3 of tIjAb amplitudes:       0.000 (MW) /      0.003 (MB)
	Size of irrep 4 of tIjAb amplitudes:       0.000 (MW) /      0.000 (MB)
	Size of irrep 5 of tIjAb amplitudes:       0.001 (MW) /      0.006 (MB)
	Size of irrep 6 of tIjAb amplitudes:       0.001 (MW) /      0.005 (MB)
	Size of irrep 7 of tIjAb amplitudes:       0.001 (MW) /      0.005 (MB)
	Total:                                     0.004 (MW) /      0.033 (MB)

	Nuclear Rep. energy          =     22.74194841594931
	SCF energy                   =   -108.37807819711516
	One-electron energy          =    -49.75858307097508
	Two-electron (AA) energy     =      4.84462651386074
	Two-electron (BB) energy     =      2.96374955623761
	Two-electron (AB) energy     =     11.43520696977385
	Two-electron energy          =     19.24358303987221
	Reference energy             =   -108.37807819711514

*** tstop() called on n412-039.vsc4.prov at Tue Jan 26 18:31:42 2021
Module time:
	user time   =       0.12 seconds =       0.00 minutes
	system time =       0.23 seconds =       0.00 minutes
	total time  =          1 seconds =       0.02 minutes
Total time:
	user time   =      11.56 seconds =       0.19 minutes
	system time =       1.12 seconds =       0.02 minutes
	total time  =          2 seconds =       0.03 minutes
            **************************
            *                        *
            *        CCENERGY        *
            *                        *
            **************************

    Nuclear Rep. energy (wfn)     =   22.741948415949309
    SCF energy          (wfn)     = -108.378078197115158
    Reference energy    (file100) = -108.378078197115144

    Input parameters:
    -----------------
    Wave function   =     CCSD_T
    Reference wfn   =     UHF
    Brueckner       =     No
    Memory (Mbytes) =     250000.0
    Maxiter         =     50
    R_Convergence   =     1.0e-07
    E_Convergence   =     1.0e-06
    Restart         =     Yes
    DIIS            =     Yes
    AO Basis        =     NONE
    ABCD            =     NEW
    Cache Level     =     2
    Cache Type      =     LRU
    Print Level     =     1
    Num. of threads =     48
    # Amps to Print =     10
    Print MP2 Amps? =     No
    Analyze T2 Amps =     No
    Print Pair Ener =     No
    Local CC        =     No
    SCS-MP2         =     False
    SCSN-MP2        =     False
    SCS-CCSD        =     False

MP2 correlation energy -0.3465730375003265
                Solving CC Amplitude Equations
                ------------------------------
  Iter             Energy              RMS        T1Diag      D1Diag    New D1Diag    D2Diag
  ----     ---------------------    ---------   ----------  ----------  ----------   --------
     0        -0.346573037500327    0.000e+00    0.000000    0.000000    0.000000    0.000000
     1        -0.307400299205676    1.290e-01    0.026855    0.000000    0.000000    0.000000
     2        -0.330602624792834    4.818e-02    0.025356    0.000000    0.000000    0.000000
     3        -0.335678346973793    1.974e-02    0.030642    0.000000    0.000000    0.000000
     4        -0.336690085162992    5.663e-03    0.031607    0.000000    0.000000    0.000000
     5        -0.336557430650263    1.434e-03    0.031690    0.000000    0.000000    0.000000
     6        -0.336573038668436    3.788e-04    0.031672    0.000000    0.000000    0.000000
     7        -0.336593975782547    1.212e-04    0.031673    0.000000    0.000000    0.000000
     8        -0.336585842281312    5.046e-05    0.031672    0.000000    0.000000    0.000000
     9        -0.336586900784616    1.961e-05    0.031673    0.000000    0.000000    0.000000
    10        -0.336587098473767    6.604e-06    0.031674    0.000000    0.000000    0.000000
    11        -0.336586979733536    2.193e-06    0.031673    0.000000    0.000000    0.000000
    12        -0.336587061948945    8.019e-07    0.031673    0.000000    0.000000    0.000000
    13        -0.336587041543920    2.497e-07    0.031673    0.000000    0.000000    0.000000
    14        -0.336587055832498    7.872e-08    0.031673    0.000000    0.000000    0.000000

    Iterations converged.

    Largest TIA Amplitudes:
              4  37         0.0217629892
              3  33         0.0217629892
              2  24         0.0204559305
              1   0        -0.0137570744
              4  38         0.0128014165
              3  34         0.0128014164
              2  27         0.0105798433
              4  35         0.0098645197
              3  31         0.0098645197
              4  36        -0.0068749853

    Largest Tia Amplitudes:
              0   0         0.0555183738
              1  25         0.0302256846
              1  28        -0.0297586573
              2  34         0.0218966570
              3  38         0.0218966570
              2  35         0.0122112545
              3  39         0.0122112545
              2  32         0.0095618673
              3  36         0.0095618673
              0   1         0.0075773292

    Largest TIJAB Amplitudes:
      4   3  15  10         0.0289181654
      3   1  24  15        -0.0197982366
      4   1  24  10        -0.0197982366
      3   1  27  15        -0.0152998455
      4   1  27  10        -0.0152998455
      4   3   8   2         0.0109320437
      4   3  37  33        -0.0099500508
      3   2  15   2        -0.0093921122
      4   2  15   8         0.0093921122
      3   2  10   8         0.0093921122

    Largest Tijab Amplitudes:
      3   1  11   0         0.0446261504
      2   1  16   0         0.0446261504
      3   2  16  11         0.0403484815
      1   0  25   0         0.0137836983
      2   1  16   1         0.0133146072
      3   1  11   1         0.0133146072
      3   2   9   3         0.0114710537
      2   1  16   3        -0.0108642404
      2   1  11   9         0.0108642404
      3   1  16   9         0.0108642404

    Largest TIjAb Amplitudes:

      * MP2 total energy                      = -108.724651234615465
      * CCSD total energy                     = -108.714665252947640
      * CCSD(T) total energy                     = -108.733646311218138
*** Psi4 exiting successfully. Buy a developer a beer!
