                               Psi4 1.2a1.dev938

  ==> Input File <==

--------------------------------------------------------------------------
# Any line starting with the # character is a comment line
memory 250000 mb
molecule molecule{
0 3
P          0.0000000000        0.0000000000        0.0446409825
H          0.0000000000        0.0000000000       -1.3718069306
}

set {
  reference uhf
  basis aug-cc-pv(t+d)z
  scf_type OUT_OF_CORE
  freeze_core true
}

energy('ccsd')
--------------------------------------------------------------------------

    Molecular point group: c2v

    Geometry (in Angstrom), charge = 0, multiplicity = 3:

       Center              X                  Y                   Z               Mass
    ------------   -----------------  -----------------  -----------------  -----------------
           P          0.000000000000     0.000000000000     0.044636048817    30.973761629000
           H          0.000000000000     0.000000000000    -1.371811864283     1.007825032070

  Charge       = 0
  Multiplicity = 3
  Basis Set: AUG-CC-PV(T+D)Z
    Blend: AUG-CC-PV(T+D)Z

    Orbital Energies (a.u.)
    -----------------------

    Alpha Occupied:

       1A1   -79.969926     2A1    -7.512344     1B2    -5.413904
       1B1    -5.413904     3A1    -5.398576     4A1    -0.851588
       5A1    -0.476994     2B2    -0.386246     2B1    -0.386246

    Alpha Virtual:

       6A1     0.031857     7A1     0.079626     3B2     0.085053
       3B1     0.085053     8A1     0.143825     9A1     0.152123
       1A2     0.194248    10A1     0.194248     4B2     0.197071
       4B1     0.197071    11A1     0.299204    12A1     0.329417
       5B1     0.332414     5B2     0.332414     6B2     0.497284
       6B1     0.497284    13A1     0.503735     2A2     0.543403
      14A1     0.543403     7B2     0.552234     7B1     0.552234
      15A1     0.556335     8B1     0.639407     8B2     0.639407
      16A1     0.642675     3A2     0.642675    17A1     0.714470
       9B1     0.762648     9B2     0.762648    18A1     0.868220
      19A1     0.949710     4A2     1.038554    20A1     1.038554
      10B2     1.044253    10B1     1.044253    21A1     1.286123
      11B1     1.502955    11B2     1.502955    22A1     1.577860
       5A2     1.581632    23A1     1.581632    12B2     1.597487
      12B1     1.597487    13B2     1.853869    13B1     1.853869
      24A1     1.863126     6A2     1.863126    25A1     1.869662
      14B2     2.049408    14B1     2.049408    26A1     2.196153
      15B2     2.442198    15B1     2.442198    27A1     2.735028
      28A1     3.220162     7A2     3.961867    29A1     3.961867
      16B1     4.192176    16B2     4.192176    30A1     4.314546
      17B1     4.429716    17B2     4.429716    31A1     4.523033
      32A1     5.305934    33A1     6.200614     8A2     6.200614
      18B2     6.287984    18B1     6.287984    34A1     7.402880

    Beta Occupied:

       1A1   -79.956259     2A1    -7.496518     3A1    -5.391827
       1B2    -5.377154     1B1    -5.377154     4A1    -0.704692
       5A1    -0.436297

    Beta Virtual:

       2B2     0.026385     2B1     0.026385     6A1     0.034597
       7A1     0.082449     3B2     0.122125     3B1     0.122125
       8A1     0.154905     9A1     0.170181     4B2     0.217812
       4B1     0.217812     1A2     0.232811    10A1     0.232811
      11A1     0.307203     5B1     0.339641     5B2     0.339641
      12A1     0.349940    13A1     0.513852     6B2     0.565423
       6B1     0.565423    14A1     0.572995     7B2     0.605269
       7B1     0.605269     2A2     0.649767    15A1     0.649767
       3A2     0.663653    16A1     0.663653     8B1     0.670114
       8B2     0.670114    17A1     0.728230     9B1     0.775900
       9B2     0.775900    18A1     0.894012    19A1     0.961851
       4A2     1.047885    20A1     1.047885    10B2     1.049871
      10B1     1.049871    21A1     1.307151    11B1     1.521396
      11B2     1.521396    22A1     1.588085    12B2     1.624833
      12B1     1.624833    23A1     1.634189     5A2     1.634189
      24A1     1.883392    25A1     1.909318     6A2     1.909318
      13B2     1.923614    13B1     1.923614    14B2     2.085059
      14B1     2.085059    26A1     2.207492    15B2     2.488602
      15B1     2.488602    27A1     2.741987    28A1     3.223745
       7A2     3.964210    29A1     3.964210    16B1     4.195750
      16B2     4.195750    30A1     4.332630    17B1     4.428962
      17B2     4.428962    31A1     4.524587    32A1     5.312494
       8A2     6.217257    33A1     6.217257    18B2     6.297956
      18B1     6.297956    34A1     7.411479

    Final Occupation by Irrep:
             A1    A2    B1    B2
    DOCC [     5,    0,    1,    1 ]
    SOCC [     0,    0,    1,    1 ]

  Energy converged.

  @UHF Final Energy:  -341.29922285729924

   => Energetics <=

    Nuclear Repulsion Energy =              5.6039181218304401
    One-Electron Energy =                -483.2566541691608109
    Two-Electron Energy =                 136.3535131900311512
    Total Energy =                       -341.2992228572992417

  UHF NO Occupations:
  HONO-2 :    5 A1 1.9862241
  HONO-1 :    2 B1 1.0000000
  HONO-0 :    2 B2 1.0000000
  LUNO+0 :    6 A1 0.0137759
  LUNO+1 :    7 A1 0.0007953
  LUNO+2 :    3 B2 0.0000035
  LUNO+3 :    3 B1 0.0000035

Properties will be evaluated at   0.000000,   0.000000,   0.000000 Bohr

Properties computed using the SCF density matrix

  Nuclear Dipole Moment: (a.u.)
     X:     0.0000      Y:     0.0000      Z:    -1.3271

  Electronic Dipole Moment: (a.u.)
     X:     0.0000      Y:     0.0000      Z:     1.1201

  Dipole Moment: (a.u.)
     X:     0.0000      Y:     0.0000      Z:    -0.2070     Total:     0.2070

  Dipole Moment: (Debye)
     X:     0.0000      Y:     0.0000      Z:    -0.5260     Total:     0.5260

*** tstop() called on cqc05 at Thu Aug 20 20:04:20 2020
Module time:
	user time   =       1.58 seconds =       0.03 minutes
	system time =       0.05 seconds =       0.00 minutes
	total time  =          1 seconds =       0.02 minutes
Total time:
	user time   =       1.58 seconds =       0.03 minutes
	system time =       0.05 seconds =       0.00 minutes
	total time  =          1 seconds =       0.02 minutes

*** tstart() called on cqc05
*** at Thu Aug 20 20:04:20 2020

	Wfn Parameters:
	--------------------
	Wavefunction         = CCSD
	Number of irreps     = 4
	Number of MOs        = 78
	Number of active MOs = 73
	AO-Basis             = NONE
	Semicanonical        = false
	Reference            = UHF
	Print Level          = 1

	IRREP	# MOs	# FZDC	# DOCC	# SOCC	# VIRT	# FZVR
	-----	-----	------	------	------	------	------
	 A1	   34	    3	    2	    0	    29	    0
	 A2	   8	    0	    0	    0	    8	    0
	 B1	   18	    1	    0	    1	    16	    0
	 B2	   18	    1	    0	    1	    16	    0
	Transforming integrals...
	IWL integrals will be deleted.
	(OO|OO)...
	Presorting SO-basis two-electron integrals.
	Sorting File: SO Ints (nn|nn) nbuckets = 1
	Transforming the one-electron integrals and constructing Fock matrices
	Starting AA/AB first half-transformation.
	Sorting AA/AB half-transformed integrals.
	Starting BB first half-transformation.
	Sorting BB half-transformed integrals.
	First half integral transformation complete.
	Starting AA second half-transformation.
	Starting AB second half-transformation.
	Starting BB second half-transformation.
	Two-electron integral transformation complete.
	(OO|OV)...
	Starting AA second half-transformation.
	Starting AB second half-transformation.
	Starting BB second half-transformation.
	Two-electron integral transformation complete.
	(OO|VV)...
	Starting AA second half-transformation.
	Starting AB second half-transformation.
	Starting BB second half-transformation.
	Two-electron integral transformation complete.
	(OV|OO)...
	Starting AA/AB first half-transformation.
	Sorting AA/AB half-transformed integrals.
	Starting BB first half-transformation.
	Sorting BB half-transformed integrals.
	First half integral transformation complete.
	Starting AA second half-transformation.
	Starting AB second half-transformation.
	Starting BB second half-transformation.
	Two-electron integral transformation complete.
	(OV|OV)...
	Starting AA second half-transformation.
	Starting AB second half-transformation.
	Starting BB second half-transformation.
	Two-electron integral transformation complete.
	(OV|VV)...
	Starting AA second half-transformation.
	Starting AB second half-transformation.
	Starting BB second half-transformation.
	Two-electron integral transformation complete.
	(VV|OO)...
	Starting AA/AB first half-transformation.
	Sorting AA/AB half-transformed integrals.
	Starting BB first half-transformation.
	Sorting BB half-transformed integrals.
	First half integral transformation complete.
	Starting AA second half-transformation.
	Starting AB second half-transformation.
	Starting BB second half-transformation.
	Two-electron integral transformation complete.
	(VV|OV)...
	Starting AA second half-transformation.
	Starting AB second half-transformation.
	Starting BB second half-transformation.
	Two-electron integral transformation complete.
	(VV|VV)...
	Starting AA second half-transformation.
	Starting AB second half-transformation.
	Starting BB second half-transformation.
	Two-electron integral transformation complete.
	Frozen core energy     =   -338.09664490249588

	Size of irrep 0 of <AB|CD> integrals:      0.454 (MW) /      3.634 (MB)
	Size of irrep 1 of <AB|CD> integrals:      0.238 (MW) /      1.905 (MB)
	Size of irrep 2 of <AB|CD> integrals:      0.350 (MW) /      2.804 (MB)
	Size of irrep 3 of <AB|CD> integrals:      0.350 (MW) /      2.804 (MB)
	Total:                                     1.393 (MW) /     11.147 (MB)

	Size of irrep 0 of <ab|cd> integrals:      0.498 (MW) /      3.987 (MB)
	Size of irrep 1 of <ab|cd> integrals:      0.271 (MW) /      2.172 (MB)
	Size of irrep 2 of <ab|cd> integrals:      0.396 (MW) /      3.165 (MB)
	Size of irrep 3 of <ab|cd> integrals:      0.396 (MW) /      3.165 (MB)
	Total:                                     1.561 (MW) /     12.489 (MB)

	Size of irrep 0 of <Ab|Cd> integrals:      2.100 (MW) /     16.797 (MB)
	Size of irrep 1 of <Ab|Cd> integrals:      1.016 (MW) /      8.129 (MB)
	Size of irrep 2 of <Ab|Cd> integrals:      1.491 (MW) /     11.927 (MB)
	Size of irrep 3 of <Ab|Cd> integrals:      1.491 (MW) /     11.927 (MB)
	Total:                                     6.097 (MW) /     48.779 (MB)

	Size of irrep 0 of <IA|BC> integrals:      0.128 (MW) /      1.020 (MB)
	Size of irrep 1 of <IA|BC> integrals:      0.047 (MW) /      0.375 (MB)
	Size of irrep 2 of <IA|BC> integrals:      0.082 (MW) /      0.654 (MB)
	Size of irrep 3 of <IA|BC> integrals:      0.082 (MW) /      0.654 (MB)
	Total:                                     0.338 (MW) /      2.702 (MB)

	Size of irrep 0 of <ia|bc> integrals:      0.086 (MW) /      0.688 (MB)
	Size of irrep 1 of <ia|bc> integrals:      0.017 (MW) /      0.133 (MB)
	Size of irrep 2 of <ia|bc> integrals:      0.043 (MW) /      0.342 (MB)
	Size of irrep 3 of <ia|bc> integrals:      0.043 (MW) /      0.342 (MB)
	Total:                                     0.188 (MW) /      1.506 (MB)

	Size of irrep 0 of <Ia|Bc> integrals:      0.133 (MW) /      1.066 (MB)
	Size of irrep 1 of <Ia|Bc> integrals:      0.050 (MW) /      0.403 (MB)
	Size of irrep 2 of <Ia|Bc> integrals:      0.087 (MW) /      0.694 (MB)
	Size of irrep 3 of <Ia|Bc> integrals:      0.087 (MW) /      0.694 (MB)
	Total:                                     0.357 (MW) /      2.857 (MB)

	Size of irrep 0 of <iA|bC> integrals:      0.084 (MW) /      0.672 (MB)
	Size of irrep 1 of <iA|bC> integrals:      0.016 (MW) /      0.129 (MB)
	Size of irrep 2 of <iA|bC> integrals:      0.039 (MW) /      0.313 (MB)
	Size of irrep 3 of <iA|bC> integrals:      0.039 (MW) /      0.313 (MB)
	Total:                                     0.178 (MW) /      1.427 (MB)

	Size of irrep 0 of tIjAb amplitudes:       0.006 (MW) /      0.046 (MB)
	Size of irrep 1 of tIjAb amplitudes:       0.000 (MW) /      0.000 (MB)
	Size of irrep 2 of tIjAb amplitudes:       0.002 (MW) /      0.020 (MB)
	Size of irrep 3 of tIjAb amplitudes:       0.002 (MW) /      0.020 (MB)
	Total:                                     0.011 (MW) /      0.085 (MB)

	Nuclear Rep. energy          =      5.60391812183044
	SCF energy                   =   -341.29922285729924
	One-electron energy          =    -14.37092944926875
	Two-electron (AA) energy     =      1.99575321708612
	Two-electron (BB) energy     =      0.29953369020430
	Two-electron (AB) energy     =      3.26914646534421
	Two-electron energy          =      5.56443337263463
	Reference energy             =   -341.29922285729958

*** tstop() called on cqc05 at Thu Aug 20 20:04:21 2020
Module time:
	user time   =       0.71 seconds =       0.01 minutes
	system time =       0.37 seconds =       0.01 minutes
	total time  =          1 seconds =       0.02 minutes
Total time:
	user time   =       2.29 seconds =       0.04 minutes
	system time =       0.42 seconds =       0.01 minutes
	total time  =          2 seconds =       0.03 minutes

*** tstart() called on cqc05
*** at Thu Aug 20 20:04:21 2020

            **************************
            *                        *
            *        CCENERGY        *
            *                        *
            **************************

    Nuclear Rep. energy (wfn)     =    5.603918121830440
    SCF energy          (wfn)     = -341.299222857299242
    Reference energy    (file100) = -341.299222857299583

    Input parameters:
    -----------------
    Wave function   =     CCSD
    Reference wfn   =     UHF
    Brueckner       =     No
    Memory (Mbytes) =     250000.0
    Maxiter         =     50
    R_Convergence   =     1.0e-07
    E_Convergence   =     1.0e-06
    Restart         =     Yes
    DIIS            =     Yes
    AO Basis        =     NONE
    ABCD            =     NEW
    Cache Level     =     2
    Cache Type      =     LRU
    Print Level     =     1
    Num. of threads =     4
    # Amps to Print =     10
    Print MP2 Amps? =     No
    Analyze T2 Amps =     No
    Print Pair Ener =     No
    Local CC        =     No
    SCS-MP2         =     False
    SCSN-MP2        =     False
    SCS-CCSD        =     False

MP2 correlation energy -0.1079821469001986
                Solving CC Amplitude Equations
                ------------------------------
  Iter             Energy              RMS        T1Diag      D1Diag    New D1Diag    D2Diag
  ----     ---------------------    ---------   ----------  ----------  ----------   --------
     0        -0.107982146900199    0.000e+00    0.000000    0.000000    0.000000    0.000000
     1        -0.124884707602746    5.480e-02    0.011885    0.000000    0.000000    0.000000
     2        -0.131603811872151    2.260e-02    0.020912    0.000000    0.000000    0.000000
     3        -0.132082427004714    6.895e-03    0.024829    0.000000    0.000000    0.000000
     4        -0.132092168739717    1.945e-03    0.025657    0.000000    0.000000    0.000000
     5        -0.132082828738220    8.206e-04    0.025965    0.000000    0.000000    0.000000
     6        -0.132084317373545    2.906e-04    0.026022    0.000000    0.000000    0.000000
     7        -0.132087170445126    9.031e-05    0.026033    0.000000    0.000000    0.000000
     8        -0.132087229173750    3.539e-05    0.026038    0.000000    0.000000    0.000000
     9        -0.132086865407109    1.300e-05    0.026038    0.000000    0.000000    0.000000
    10        -0.132086893715939    4.598e-06    0.026038    0.000000    0.000000    0.000000
    11        -0.132086898140721    1.200e-06    0.026038    0.000000    0.000000    0.000000
    12        -0.132086912261587    3.543e-07    0.026038    0.000000    0.000000    0.000000
    13        -0.132086905824328    1.142e-07    0.026038    0.000000    0.000000    0.000000
    14        -0.132086904974732    4.085e-08    0.026038    0.000000    0.000000    0.000000
    14        -0.132086904974732    4.085e-08    0.026038    0.000000    0.000000    0.000000

    Iterations converged.

    CCSD corr. energy   =   -0.132086904974732
    PPL corr. energy    =    0.039322414594259
    OS PPL corr. energy =    0.033598499768202
    SS PPL corr. energy =    0.005723914826057
    Largest TIA Amplitudes:
              1   3        -0.0257821570
              1   9         0.0124946329
              1  11         0.0091126538
              1   5        -0.0085563353
              0   3        -0.0081170912
              2  38        -0.0076711137
              3  54        -0.0076711137
              0   9         0.0072461669
              1   6         0.0071184107
              0   5        -0.0050636639

    Largest Tia Amplitudes:
              0   3        -0.0257609109
              1   3        -0.0225687185
              0   6         0.0206496952
              1   6         0.0153590915
              0   8         0.0110566297
              1   5        -0.0099707175
              0   5        -0.0091130434
              1   8         0.0074686864
              0   2         0.0072482090
              1   1        -0.0070295479

    Largest TIJAB Amplitudes:
      3   2  30   8        -0.0358638101
      3   2  29   4        -0.0308398034
      3   2  29   8        -0.0289640701
      3   2  30   4        -0.0289640701
      2   1  38   3         0.0282408182
      3   1  54   3         0.0282408182
      2   1  41   3        -0.0272841127
      3   1  57   3        -0.0272841127
      3   2  57  41        -0.0206799768
      3   2  56  40        -0.0203299544

    Largest Tijab Amplitudes:
      1   0  42  37        -0.0107619501
      1   0  59  54        -0.0107619501
      1   0  42  38        -0.0094055745
      1   0  59  55        -0.0094055745
      1   0  39  37         0.0088972444
      1   0  56  54         0.0088972444
      1   0  39  38         0.0072736395
      1   0  56  55         0.0072736395
      1   0  42  41         0.0064627677
      1   0  59  58         0.0064627677

    Largest TIjAb Amplitudes:
      1   1   3   3         0.0595158347
      1   1   3   6        -0.0474449886
      1   1   6   3        -0.0373123471
      1   1   6   6         0.0356113889
      1   1   3   8        -0.0334065598

      * MP2 total energy                      = -341.407205004199795
      * CCSD total energy                     = -341.431309762274338
*** Psi4 exiting successfully. Buy a developer a beer!
