                               Psi4 1.2a1.dev938

  ==> Input File <==

--------------------------------------------------------------------------
# Any line starting with the # character is a comment line
memory 250000 mb
molecule molecule{
0 3
P          0.0000000000        0.0000000000        0.0446409825
H          0.0000000000        0.0000000000       -1.3718069306
}

set {
  reference uhf
  basis aug-cc-pv(6+d)z
  scf_type OUT_OF_CORE
  freeze_core true
}

energy('ccsd')
--------------------------------------------------------------------------

    Molecular point group: c2v

    Geometry (in Angstrom), charge = 0, multiplicity = 3:

       Center              X                  Y                   Z               Mass
    ------------   -----------------  -----------------  -----------------  -----------------
           P          0.000000000000     0.000000000000     0.044636048817    30.973761629000
           H          0.000000000000     0.000000000000    -1.371811864283     1.007825032070

  Charge       = 0
  Multiplicity = 3
  Basis Set: AUG-CC-PV(6+D)Z
    Blend: AUG-CC-PV(6+D)Z

    Orbital Energies (a.u.)
    -----------------------

    Alpha Occupied:

       1A1   -79.969349     2A1    -7.511531     1B1    -5.413987
       1B2    -5.413987     3A1    -5.398192     4A1    -0.851232
       5A1    -0.476895     2B1    -0.386266     2B2    -0.386266

    Alpha Virtual:

       6A1     0.021476     7A1     0.049739     3B1     0.052825
       3B2     0.052825     8A1     0.091448     9A1     0.118330
       4B2     0.135869     4B1     0.135869    10A1     0.138861
       1A2     0.138861    11A1     0.180905    12A1     0.194150
       5B2     0.201749     5B1     0.201749     6B1     0.237663
       6B2     0.237663    13A1     0.258651    14A1     0.281840
      15A1     0.335325     2A2     0.335325     7B2     0.341161
       7B1     0.341161     8B2     0.345748     8B1     0.345748
      16A1     0.353407     3A2     0.353407    17A1     0.395070
       9B1     0.432486     9B2     0.432486    18A1     0.469085
      19A1     0.499318    20A1     0.499971     4A2     0.499971
      10B2     0.509399    10B1     0.509399    21A1     0.602021
      11B2     0.705024    11B1     0.705024     5A2     0.706944
      22A1     0.706944    23A1     0.733192    12B1     0.740191
      12B2     0.740191    13B1     0.797902    13B2     0.797902
      24A1     0.799907     6A2     0.804712    25A1     0.804712
      14B2     0.819759    14B1     0.819759    26A1     0.856836
      27A1     0.903176     7A2     0.903176    15B1     0.913416
      15B2     0.913416    28A1     0.917356     8A2     0.932131
      29A1     0.932131    16B2     0.944944    16B1     0.944944
      17B2     1.113531    17B1     1.113531    30A1     1.140511
      31A1     1.182394     9A2     1.182394    18B2     1.205734
      18B1     1.205734    32A1     1.271649    19B1     1.360718
      19B2     1.360718    33A1     1.364686    34A1     1.526089
      10A2     1.624008    35A1     1.624008    20B2     1.624066
      20B1     1.624066    21B2     1.724635    21B1     1.724635
      36A1     1.739171    22B1     1.740485    22B2     1.740485
      37A1     1.744915    11A2     1.744915    38A1     1.746322
      12A2     1.746322    23B1     1.816879    23B2     1.816879
      13A2     1.820770    39A1     1.820770    40A1     1.826151
      24B2     1.842502    24B1     1.842502    25B2     1.871370
      25B1     1.871370    14A2     1.950829    41A1     1.950829
      42A1     1.993893    26B1     2.017567    26B2     2.017567
      15A2     2.045707    43A1     2.045707    44A1     2.106853
      27B2     2.129766    27B1     2.129766    28B2     2.203871
      28B1     2.203871    45A1     2.386276    16A2     2.397022
      46A1     2.397022    47A1     2.435531    17A2     2.435531
      29B2     2.474877    29B1     2.474877    48A1     2.509793
      18A2     2.618525    49A1     2.618525    30B2     2.684925
      30B1     2.684925    50A1     2.695169    31B2     2.742977
      31B1     2.742977    51A1     2.941453    32B2     3.193908
      32B1     3.193908    33B2     3.312560    33B1     3.312560
      52A1     3.377243    34B2     3.396540    34B1     3.396540
      53A1     3.408609    19A2     3.408609    20A2     3.505816
      54A1     3.505816    55A1     3.607093    21A2     3.607093
      35B1     3.620629    35B2     3.620629    36B2     3.655052
      36B1     3.655052    56A1     3.655759    22A2     3.655759
      37B2     3.713879    37B1     3.713879    23A2     3.722893
      57A1     3.722893    58A1     3.758727    24A2     3.793852
      59A1     3.793852    60A1     3.827991    38B2     3.860356
      38B1     3.860356    39B1     3.861807    39B2     3.861807
      25A2     3.928203    61A1     3.928203    40B2     4.025665
      40B1     4.025665    62A1     4.066936    63A1     4.211322
      26A2     4.251869    64A1     4.251869    41B1     4.267411
      41B2     4.267411    42B2     4.349128    42B1     4.349128
      27A2     4.478638    65A1     4.478638    43B2     4.532466
      43B1     4.532466    44B2     4.551297    44B1     4.551297
      66A1     4.577333    45B1     4.633134    45B2     4.633134
      28A2     4.688117    67A1     4.688117    68A1     4.753252
      69A1     5.038937    70A1     5.181607    29A2     5.181607
      46B2     5.264147    46B1     5.264147    30A2     5.378904
      71A1     5.378904    47B2     5.416835    47B1     5.416835
      72A1     5.457909    48B2     5.491849    48B1     5.491849
      73A1     5.656073    49B2     5.812640    49B1     5.812640
      31A2     5.856811    74A1     5.856811    50B2     6.545203
      50B1     6.545203    75A1     6.616963    51B2     6.860497
      51B1     6.860497    76A1     7.110125    32A2     7.110125
      52B1     7.124845    52B2     7.124845    53B2     7.166363
      53B1     7.166363    33A2     7.238781    77A1     7.238781
      78A1     7.253292    54B1     7.305676    54B2     7.305676
      34A2     7.319925    79A1     7.319925    80A1     7.349243
      35A2     7.508174    81A1     7.508174    55B1     7.523308
      55B2     7.523308    36A2     7.594560    82A1     7.594560
      83A1     7.761721    37A2     7.761721    56B2     7.889339
      56B1     7.889339    57B2     7.925217    57B1     7.925217
      38A2     7.927485    84A1     7.927485    85A1     7.951240
      58B1     8.006715    58B2     8.006715    86A1     8.118943
      39A2     8.118943    87A1     8.157886    59B2     8.427986
      59B1     8.427986    60B1     8.693425    60B2     8.693425
      88A1     8.840206    61B2     8.881029    61B1     8.881029
      40A2     8.920597    89A1     8.920597    62B2     9.065467
      62B1     9.065467    90A1     9.257984    91A1     9.279263
      41A2     9.279263    42A2     9.694261    92A1     9.694261
      93A1     9.916438    63B2    10.035755    63B1    10.035755
      94A1    10.039689    64B2    10.056120    64B1    10.056120
      65B2    10.472272    65B1    10.472272    95A1    10.500959
      43A2    10.500959    96A1    10.833552    44A2    10.910031
      97A1    10.910031    66B2    11.071784    66B1    11.071784
      98A1    11.963321    67B2    12.411996    67B1    12.411996
      99A1    13.510403    68B2    13.624532    68B1    13.624532
     100A1    15.576406    69B2    17.530889    69B1    17.530889
      45A2    17.656631   101A1    17.656631    70B1    17.777944
      70B2    17.777944    46A2    18.044896   102A1    18.044896
     103A1    18.513677    71B2    18.586279    71B1    18.586279
      47A2    20.330286   104A1    20.330286    72B2    20.655438
      72B1    20.655438    48A2    21.216762   105A1    21.216762
      73B2    21.502991    73B1    21.502991   106A1    21.589300
     107A1    22.417735    49A2    23.083343   108A1    23.083343
      74B2    24.074068    74B1    24.074068   109A1    24.336873
      75B2    24.458886    75B1    24.458886    50A2    24.658614
     110A1    24.658614    76B2    24.831286    76B1    24.831286
     111A1    24.981957   112A1    25.970874    51A2    25.970874
      77B1    26.275794    77B2    26.275794    78B1    27.033278
      78B2    27.033278   113A1    27.050355   114A1    31.081053
      79B2    34.853079    79B1    34.853079   115A1    36.487546
     116A1   214.388210

    Beta Occupied:

       1A1   -79.954518     2A1    -7.495701     3A1    -5.391173
       1B2    -5.375953     1B1    -5.375953     4A1    -0.704322
       5A1    -0.436229

    Beta Virtual:

       2B2     0.023116     2B1     0.023116     6A1     0.023132
       7A1     0.050623     3B2     0.077310     3B1     0.077310
       8A1     0.097526     9A1     0.126177     4B2     0.142620
       4B1     0.142620     1A2     0.152749    10A1     0.152749
      11A1     0.183457     5B2     0.205316     5B1     0.205316
      12A1     0.205808    13A1     0.270010     6B2     0.279212
       6B1     0.279212    14A1     0.295726     2A2     0.340189
      15A1     0.340189     7B2     0.347900     7B1     0.347900
       8B2     0.376947     8B1     0.376947    16A1     0.400415
       3A2     0.424423    17A1     0.424423     9B2     0.441260
       9B1     0.441260    18A1     0.479050    19A1     0.509493
       4A2     0.513707    20A1     0.513707    10B2     0.516740
      10B1     0.516740    21A1     0.616637    11B2     0.710365
      11B1     0.710365    22A1     0.714132     5A2     0.714132
      23A1     0.739566    12B2     0.786199    12B1     0.786199
      13B1     0.801233    13B2     0.801233    24A1     0.802794
       6A2     0.819238    25A1     0.819238    14B2     0.854786
      14B1     0.854786    26A1     0.866591    27A1     0.933535
       7A2     0.937186    28A1     0.937186    15B2     0.950786
      15B1     0.950786    16B2     0.962726    16B1     0.962726
       8A2     0.984364    29A1     0.984364    17B2     1.119132
      17B1     1.119132    30A1     1.149939     9A2     1.187037
      31A1     1.187037    18B2     1.209300    18B1     1.209300
      32A1     1.286912    33A1     1.368491    19B2     1.373593
      19B1     1.373593    34A1     1.541780    10A2     1.634067
      35A1     1.634067    20B2     1.636724    20B1     1.636724
      21B2     1.741006    21B1     1.741006    36A1     1.752061
      11A2     1.756739    37A1     1.756739    22B2     1.757561
      22B1     1.757561    38A1     1.772254    12A2     1.772254
      23B1     1.824255    23B2     1.824255    39A1     1.829498
      13A2     1.830285    40A1     1.830285    24B2     1.853543
      24B1     1.853543    25B2     1.886721    25B1     1.886721
      14A2     1.978780    41A1     1.978780    42A1     2.010030
      26B2     2.072047    26B1     2.072047    15A2     2.082155
      43A1     2.082155    44A1     2.110919    27B2     2.156616
      27B1     2.156616    28B2     2.227018    28B1     2.227018
      45A1     2.396187    16A2     2.401003    46A1     2.401003
      17A2     2.444276    47A1     2.444276    29B2     2.485815
      29B1     2.485815    48A1     2.518710    18A2     2.624299
      49A1     2.624299    30B2     2.686444    30B1     2.686444
      50A1     2.698587    31B2     2.747688    31B1     2.747688
      51A1     2.947101    32B2     3.211780    32B1     3.211780
      33B2     3.323047    33B1     3.323047    52A1     3.391058
      34B2     3.410957    34B1     3.410957    53A1     3.426517
      19A2     3.426517    20A2     3.522192    54A1     3.522192
      55A1     3.638720    21A2     3.638720    35B2     3.648326
      35B1     3.648326    36B2     3.666480    36B1     3.666480
      56A1     3.675320    22A2     3.675320    37B2     3.741759
      37B1     3.741759    23A2     3.742938    57A1     3.742938
      58A1     3.771382    59A1     3.805973    24A2     3.805973
      60A1     3.836094    38B2     3.870995    38B1     3.870995
      39B2     3.875723    39B1     3.875723    25A2     3.942682
      61A1     3.942682    40B2     4.034658    40B1     4.034658
      62A1     4.076732    63A1     4.221631    64A1     4.274242
      26A2     4.274242    41B2     4.302382    41B1     4.302382
      42B2     4.353683    42B1     4.353683    27A2     4.492632
      65A1     4.492632    43B1     4.536026    43B2     4.536026
      44B2     4.564466    44B1     4.564466    66A1     4.589662
      45B1     4.643360    45B2     4.643360    67A1     4.696792
      28A2     4.696792    68A1     4.754675    69A1     5.044998
      70A1     5.186291    29A2     5.186291    46B2     5.277679
      46B1     5.277679    30A2     5.382002    71A1     5.382002
      47B2     5.419601    47B1     5.419601    72A1     5.464794
      48B2     5.494138    48B1     5.494138    73A1     5.658770
      49B2     5.819223    49B1     5.819223    31A2     5.867886
      74A1     5.867886    50B2     6.562154    50B1     6.562154
      75A1     6.620367    51B2     6.871740    51B1     6.871740
      76A1     7.137386    32A2     7.137386    52B2     7.144883
      52B1     7.144883    53B2     7.175426    53B1     7.175426
      33A2     7.249322    77A1     7.249322    78A1     7.263535
      54B1     7.314948    54B2     7.314948    34A2     7.326462
      79A1     7.326462    80A1     7.352982    35A2     7.533085
      81A1     7.533085    55B2     7.543734    55B1     7.543734
      82A1     7.605525    36A2     7.605525    83A1     7.775979
      37A2     7.775979    56B2     7.917017    56B1     7.917017
      57B2     7.932718    57B1     7.932718    38A2     7.946912
      84A1     7.946912    85A1     7.958786    58B2     8.022447
      58B1     8.022447    86A1     8.130238    39A2     8.130238
      87A1     8.165026    59B2     8.439190    59B1     8.439190
      60B2     8.702251    60B1     8.702251    88A1     8.845265
      61B2     8.888116    61B1     8.888116    89A1     8.930251
      40A2     8.930251    62B2     9.078827    62B1     9.078827
      90A1     9.263560    91A1     9.296747    41A2     9.296747
      42A2     9.695877    92A1     9.695877    93A1     9.923955
      63B2    10.036425    63B1    10.036425    94A1    10.041285
      64B2    10.063486    64B1    10.063486    65B2    10.474724
      65B1    10.474724    95A1    10.506695    43A2    10.506695
      96A1    10.838273    44A2    10.911401    97A1    10.911401
      66B2    11.073927    66B1    11.073927    98A1    11.964267
      67B2    12.415760    67B1    12.415760    99A1    13.518027
      68B2    13.623548    68B1    13.623548   100A1    15.576675
      69B2    17.531041    69B1    17.531041    45A2    17.656973
     101A1    17.656973    70B1    17.778367    70B2    17.778367
      46A2    18.045485   102A1    18.045485   103A1    18.514208
      71B2    18.586682    71B1    18.586682    47A2    20.329994
     104A1    20.329994    72B2    20.655341    72B1    20.655341
      48A2    21.216648   105A1    21.216648    73B2    21.503047
      73B1    21.503047   106A1    21.589024   107A1    22.416361
      49A2    23.082483   108A1    23.082483    74B2    24.073407
      74B1    24.073407   109A1    24.336122    75B2    24.458887
      75B1    24.458887    50A2    24.657952   110A1    24.657952
      76B2    24.830817    76B1    24.830817   111A1    24.982357
     112A1    25.992049    51A2    25.992049    77B2    26.289647
      77B1    26.289647    78B1    27.051735    78B2    27.051735
     113A1    27.057537   114A1    31.084811    79B2    34.851837
      79B1    34.851837   115A1    36.486461   116A1   214.394042

    Final Occupation by Irrep:
             A1    A2    B1    B2
    DOCC [     5,    0,    1,    1 ]
    SOCC [     0,    0,    1,    1 ]

  Energy converged.

  @UHF Final Energy:  -341.30251879678661

   => Energetics <=

    Nuclear Repulsion Energy =              5.6039181218304401
    One-Electron Energy =                -483.2713179334557481
    Two-Electron Energy =                 136.3648810148387440
    PCM Polarization Energy =               0.0000000000000000
    Total Energy =                       -341.3025187967865577

    Alert: EFP and PCM quantities not currently incorporated into SCF psivars.
  UHF NO Occupations:
  HONO-2 :    5 A1 1.9860894
  HONO-1 :    2 B2 1.0000000
  HONO-0 :    2 B1 1.0000000
  LUNO+0 :    6 A1 0.0139106
  LUNO+1 :    7 A1 0.0008014
  LUNO+2 :    3 B1 0.0000052
  LUNO+3 :    3 B2 0.0000052

Properties will be evaluated at   0.000000,   0.000000,   0.000000 Bohr

Properties computed using the SCF density matrix

  Nuclear Dipole Moment: (a.u.)
     X:     0.0000      Y:     0.0000      Z:    -1.3271

  Electronic Dipole Moment: (a.u.)
     X:     0.0000      Y:     0.0000      Z:     1.1221

  Dipole Moment: (a.u.)
     X:     0.0000      Y:     0.0000      Z:    -0.2051     Total:     0.2051

  Dipole Moment: (Debye)
     X:     0.0000      Y:     0.0000      Z:    -0.5212     Total:     0.5212

*** tstop() called on cqc05 at Wed Aug 26 17:40:33 2020
Module time:
	user time   =     280.51 seconds =       4.68 minutes
	system time =      18.71 seconds =       0.31 minutes
	total time  =        385 seconds =       6.42 minutes
Total time:
	user time   =     280.51 seconds =       4.68 minutes
	system time =      18.71 seconds =       0.31 minutes
	total time  =        385 seconds =       6.42 minutes

*** tstart() called on cqc05
*** at Wed Aug 26 17:40:33 2020

	Wfn Parameters:
	--------------------
	Wavefunction         = CCSD
	Number of irreps     = 4
	Number of MOs        = 325
	Number of active MOs = 320
	AO-Basis             = NONE
	Semicanonical        = false
	Reference            = UHF
	Print Level          = 1

	IRREP	# MOs	# FZDC	# DOCC	# SOCC	# VIRT	# FZVR
	-----	-----	------	------	------	------	------
	 A1	   116	    3	    2	    0	    111	    0
	 A2	   51	    0	    0	    0	    51	    0
	 B1	   79	    1	    0	    1	    77	    0
	 B2	   79	    1	    0	    1	    77	    0
	Transforming integrals...
	IWL integrals will be deleted.
	(OO|OO)...
	Presorting SO-basis two-electron integrals.
	Sorting File: SO Ints (nn|nn) nbuckets = 1
	Transforming the one-electron integrals and constructing Fock matrices
	Starting AA/AB first half-transformation.
	Sorting AA/AB half-transformed integrals.
	Starting BB first half-transformation.
	Sorting BB half-transformed integrals.
	First half integral transformation complete.
	Starting AA second half-transformation.
	Starting AB second half-transformation.
	Starting BB second half-transformation.
	Two-electron integral transformation complete.
	(OO|OV)...
	Starting AA second half-transformation.
	Starting AB second half-transformation.
	Starting BB second half-transformation.
	Two-electron integral transformation complete.
	(OO|VV)...
	Starting AA second half-transformation.
	Starting AB second half-transformation.
	Starting BB second half-transformation.
	Two-electron integral transformation complete.
	(OV|OO)...
	Starting AA/AB first half-transformation.
	Sorting AA/AB half-transformed integrals.
	Starting BB first half-transformation.
	Sorting BB half-transformed integrals.
	First half integral transformation complete.
	Starting AA second half-transformation.
	Starting AB second half-transformation.
	Starting BB second half-transformation.
	Two-electron integral transformation complete.
	(OV|OV)...
	Starting AA second half-transformation.
	Starting AB second half-transformation.
	Starting BB second half-transformation.
	Two-electron integral transformation complete.
	(OV|VV)...
	Starting AA second half-transformation.
	Starting AB second half-transformation.
	Starting BB second half-transformation.
	Two-electron integral transformation complete.
	(VV|OO)...
	Starting AA/AB first half-transformation.
	Sorting AA/AB half-transformed integrals.
	Starting BB first half-transformation.
	Sorting BB half-transformed integrals.
	First half integral transformation complete.
	Starting AA second half-transformation.
	Starting AB second half-transformation.
	Starting BB second half-transformation.
	Two-electron integral transformation complete.
	(VV|OV)...
	Starting AA second half-transformation.
	Starting AB second half-transformation.
	Starting BB second half-transformation.
	Two-electron integral transformation complete.
	(VV|VV)...
	Starting AA second half-transformation.
	Starting AB second half-transformation.
	Starting BB second half-transformation.
	Two-electron integral transformation complete.
	Frozen core energy     =   -338.09883613064272

	Size of irrep 0 of <AB|CD> integrals:    175.086 (MW) /   1400.687 (MB)
	Size of irrep 1 of <AB|CD> integrals:    134.328 (MW) /   1074.625 (MB)
	Size of irrep 2 of <AB|CD> integrals:    155.601 (MW) /   1244.805 (MB)
	Size of irrep 3 of <AB|CD> integrals:    155.601 (MW) /   1244.805 (MB)
	Total:                                   620.615 (MW) /   4964.922 (MB)

	Size of irrep 0 of <ab|cd> integrals:    179.185 (MW) /   1433.480 (MB)
	Size of irrep 1 of <ab|cd> integrals:    137.945 (MW) /   1103.560 (MB)
	Size of irrep 2 of <ab|cd> integrals:    159.668 (MW) /   1277.348 (MB)
	Size of irrep 3 of <ab|cd> integrals:    159.668 (MW) /   1277.348 (MB)
	Total:                                   636.467 (MW) /   5091.736 (MB)

	Size of irrep 0 of <Ab|Cd> integrals:    725.440 (MW) /   5803.523 (MB)
	Size of irrep 1 of <Ab|Cd> integrals:    544.476 (MW) /   4355.804 (MB)
	Size of irrep 2 of <Ab|Cd> integrals:    630.512 (MW) /   5044.097 (MB)
	Size of irrep 3 of <Ab|Cd> integrals:    630.512 (MW) /   5044.097 (MB)
	Total:                                  2530.940 (MW) /  20247.521 (MB)

	Size of irrep 0 of <IA|BC> integrals:     10.069 (MW) /     80.554 (MB)
	Size of irrep 1 of <IA|BC> integrals:      5.934 (MW) /     47.473 (MB)
	Size of irrep 2 of <IA|BC> integrals:      7.884 (MW) /     63.069 (MB)
	Size of irrep 3 of <IA|BC> integrals:      7.884 (MW) /     63.069 (MB)
	Total:                                    31.770 (MW) /    254.164 (MB)

      * MP2 total energy                      = -341.422117234413918
      * CCSD total energy                     = -341.442064875424649
*** Psi4 exiting successfully. Buy a developer a beer!
