                               Psi4 1.2a1.dev938

  ==> Input File <==

--------------------------------------------------------------------------
# Any line starting with the # character is a comment line
memory 250000 mb
molecule molecule{
0 3
P          0.0000000000        0.0000000000        0.0446409825
H          0.0000000000        0.0000000000       -1.3718069306
}

set {
  reference uhf
  basis aug-cc-pv(5+d)z
  scf_type OUT_OF_CORE
  freeze_core true
}

energy('ccsd')
--------------------------------------------------------------------------

    Molecular point group: c2v

    Geometry (in Angstrom), charge = 0, multiplicity = 3:

       Center              X                  Y                   Z               Mass
    ------------   -----------------  -----------------  -----------------  -----------------
           P          0.000000000000     0.000000000000     0.044636048817    30.973761629000
           H          0.000000000000     0.000000000000    -1.371811864283     1.007825032070

  Charge       = 0
  Multiplicity = 3
  Basis Set: AUG-CC-PV(5+D)Z
    Blend: AUG-CC-PV(5+D)Z

    Orbital Energies (a.u.)
    -----------------------

    Alpha Occupied:

       1A1   -79.969386     2A1    -7.511521     1B2    -5.413966
       1B1    -5.413966     3A1    -5.398204     4A1    -0.851255
       5A1    -0.476879     2B1    -0.386273     2B2    -0.386273

    Alpha Virtual:

       6A1     0.023989     7A1     0.058550     3B2     0.063382
       3B1     0.063382     8A1     0.106085     9A1     0.124853
       4B2     0.143862     4B1     0.143862     1A2     0.146724
      10A1     0.146724    11A1     0.209162    12A1     0.218014
       5B2     0.226291     5B1     0.226291    13A1     0.306587
       6B2     0.309549     6B1     0.309549    14A1     0.351293
       2A2     0.364741    15A1     0.364741     7B1     0.368721
       7B2     0.368721     8B2     0.370287     8B1     0.370287
      16A1     0.380442     3A2     0.380442    17A1     0.439984
       9B2     0.475189     9B1     0.475189    18A1     0.548659
      19A1     0.552261    10B2     0.606408    10B1     0.606408
       4A2     0.622060    20A1     0.622060    21A1     0.721931
       5A2     0.900714    22A1     0.900714    11B2     0.901544
      11B1     0.901544    12B2     0.920763    12B1     0.920763
      23A1     0.940423     6A2     0.957513    24A1     0.957513
      25A1     0.975096     7A2     0.975096    13B1     0.975849
      13B2     0.975849    26A1     0.977246    14B2     0.990030
      14B1     0.990030    27A1     1.035250    15B2     1.036420
      15B1     1.036420    16B1     1.064269    16B2     1.064269
       8A2     1.070730    28A1     1.070730    29A1     1.167929
      17B2     1.311424    17B1     1.311424    30A1     1.377536
      18B2     1.392979    18B1     1.392979    31A1     1.457789
       9A2     1.468386    32A1     1.468386    19B2     1.663849
      19B1     1.663849    33A1     1.695285    34A1     1.905920
      10A2     2.065900    35A1     2.065900    20B2     2.096907
      20B1     2.096907    36A1     2.155752    11A2     2.155752
      21B2     2.158045    21B1     2.158045    22B2     2.169622
      22B1     2.169622    37A1     2.174819    23B1     2.176094
      23B2     2.176094    12A2     2.208424    38A1     2.208424
      13A2     2.316464    39A1     2.316464    14A2     2.320216
      40A1     2.320216    24B2     2.322195    24B1     2.322195
      25B1     2.383234    25B2     2.383234    26B1     2.391845
      26B2     2.391845    41A1     2.397827    42A1     2.417952
      15A2     2.417952    43A1     2.487424    27B2     2.546137
      27B1     2.546137    44A1     2.785642    28B1     2.834019
      28B2     2.834019    45A1     2.887614    16A2     3.002388
      46A1     3.002388    47A1     3.138010    17A2     3.138010
      48A1     3.192327    29B2     3.291545    29B1     3.291545
      18A2     3.582630    49A1     3.582630    30B2     3.664643
      30B1     3.664643    31B2     3.760546    31B1     3.760546
      50A1     3.821506    51A1     3.986145    32B2     3.995158
      32B1     3.995158    33B1     4.320281    33B2     4.320281
      52A1     4.589744    19A2     4.601259    53A1     4.601259
      34B1     4.606294    34B2     4.606294    35B2     4.684975
      35B1     4.684975    20A2     4.706909    54A1     4.706909
      55A1     4.858644    21A2     4.927874    56A1     4.927874
      36B2     4.929447    36B1     4.929447    57A1     5.186644
      37B2     5.203786    37B1     5.203786    58A1     5.213262
      22A2     5.213262    38B1     5.252063    38B2     5.252063
      23A2     5.290410    59A1     5.290410    39B2     5.296054
      39B1     5.296054    60A1     5.383214    40B2     5.416277
      40B1     5.416277    24A2     5.429124    61A1     5.429124
      41B1     5.559682    41B2     5.559682    62A1     5.623432
      63A1     5.785014    25A2     5.966221    64A1     5.966221
      65A1     6.152126    26A2     6.279637    66A1     6.279637
      42B1     6.322762    42B2     6.322762    43B2     6.644412
      43B1     6.644412    67A1     7.376663    44B1     7.552971
      44B2     7.552971    68A1     9.104456    45B1    12.982117
      45B2    12.982117    69A1    13.127282    27A2    13.127282
      28A2    13.172400    70A1    13.172400    29A2    13.296992
      71A1    13.296992    46B2    13.326107    46B1    13.326107
      47B2    13.327941    47B1    13.327941    48B1    13.455875
      48B2    13.455875    72A1    13.492068    73A1    13.597329
      30A2    13.643475    74A1    13.643475    75A1    13.737968
      49B2    14.263348    49B1    14.263348    31A2    14.475107
      76A1    14.475107    77A1    14.542419    50B2    14.920551
      50B1    14.920551    78A1    16.014377    51B2    17.022745
      51B1    17.022745    52B2    18.137947    52B1    18.137947
      79A1    18.833763    80A1    20.148820    81A1    54.065157

    Beta Occupied:

       1A1   -79.954509     2A1    -7.495825     3A1    -5.391195
       1B2    -5.376073     1B1    -5.376073     4A1    -0.704354
       5A1    -0.436220

    Beta Virtual:

       2B2     0.024483     2B1     0.024483     6A1     0.025903
       7A1     0.059877     3B2     0.091566     3B1     0.091566
       8A1     0.113369     9A1     0.134740     4B2     0.151984
       4B1     0.151984    10A1     0.163404     1A2     0.163404
      11A1     0.210811     5B2     0.232268     5B1     0.232268
      12A1     0.236156    13A1     0.314282     6B2     0.357471
       6B1     0.357471    14A1     0.368456    15A1     0.370032
       2A2     0.370032     7B1     0.376926     7B2     0.376926
       8B2     0.404008     8B1     0.404008    16A1     0.444119
       3A2     0.466543    17A1     0.466543     9B2     0.486731
       9B1     0.486731    18A1     0.560169    19A1     0.567777
      10B2     0.616401    10B1     0.616401    20A1     0.627327
       4A2     0.627327    21A1     0.731672    11B2     0.911313
      11B1     0.911313     5A2     0.913625    22A1     0.913625
      12B2     0.946427    12B1     0.946427    23A1     0.952589
       6A2     0.991060    24A1     0.991060    25A1     0.992662
      13B2     1.009408    13B1     1.009408    14B1     1.016375
      14B2     1.016375    26A1     1.029638     7A2     1.029638
      27A1     1.041596    15B2     1.057047    15B1     1.057047
      28A1     1.087963     8A2     1.087963    16B1     1.103933
      16B2     1.103933    29A1     1.175045    17B2     1.319099
      17B1     1.319099    30A1     1.392013    18B2     1.397263
      18B1     1.397263    31A1     1.467086    32A1     1.470682
       9A2     1.470682    19B2     1.679435    19B1     1.679435
      33A1     1.700469    34A1     1.930625    10A2     2.081569
      35A1     2.081569    20B2     2.115199    20B1     2.115199
      36A1     2.172048    11A2     2.172048    21B2     2.178757
      21B1     2.178757    22B2     2.186089    22B1     2.186089
      37A1     2.194000    23B1     2.231819    23B2     2.231819
      12A2     2.243023    38A1     2.243023    24B2     2.349418
      24B1     2.349418    39A1     2.354653    13A2     2.354653
      14A2     2.354779    40A1     2.354779    25B1     2.391420
      25B2     2.391420    26B2     2.406006    26B1     2.406006
      41A1     2.407462    15A2     2.430678    42A1     2.430678
      43A1     2.492031    27B2     2.562234    27B1     2.562234
      44A1     2.794645    28B1     2.847839    28B2     2.847839
      45A1     2.896012    16A2     3.012054    46A1     3.012054
      47A1     3.142776    17A2     3.142776    48A1     3.191952
      29B2     3.302939    29B1     3.302939    18A2     3.586583
      49A1     3.586583    30B2     3.668013    30B1     3.668013
      31B2     3.775030    31B1     3.775030    50A1     3.826158
      51A1     3.991749    32B2     4.018068    32B1     4.018068
      33B1     4.327429    33B2     4.327429    52A1     4.607747
      53A1     4.621213    19A2     4.621213    34B1     4.639186
      34B2     4.639186    35B2     4.697747    35B1     4.697747
      20A2     4.719510    54A1     4.719510    55A1     4.871363
      36B2     4.936341    36B1     4.936341    56A1     4.951560
      21A2     4.951560    57A1     5.193256    37B2     5.237064
      37B1     5.237064    58A1     5.239735    22A2     5.239735
      38B1     5.268653    38B2     5.268653    39B2     5.324435
      39B1     5.324435    23A2     5.327812    59A1     5.327812
      60A1     5.394970    40B2     5.435260    40B1     5.435260
      61A1     5.444659    24A2     5.444659    41B1     5.569804
      41B2     5.569804    62A1     5.633882    63A1     5.792790
      25A2     5.968580    64A1     5.968580    65A1     6.154538
      66A1     6.292592    26A2     6.292592    42B1     6.326834
      42B2     6.326834    43B2     6.649359    43B1     6.649359
      67A1     7.379831    44B1     7.559075    44B2     7.559075
      68A1     9.108242    45B1    12.981802    45B2    12.981802
      69A1    13.145363    27A2    13.145363    28A2    13.172536
      70A1    13.172536    71A1    13.298191    29A2    13.298191
      46B2    13.326496    46B1    13.326496    47B2    13.328018
      47B1    13.328018    48B1    13.466232    48B2    13.466232
      72A1    13.492018    73A1    13.603197    30A2    13.644062
      74A1    13.644062    75A1    13.738704    49B2    14.263549
      49B1    14.263549    31A2    14.474390    76A1    14.474390
      77A1    14.541403    50B2    14.921044    50B1    14.921044
      78A1    16.013829    51B2    17.037754    51B1    17.037754
      52B2    18.147009    52B1    18.147009    79A1    18.833025
      80A1    20.153333    81A1    54.075573

    Final Occupation by Irrep:
             A1    A2    B1    B2
    DOCC [     5,    0,    1,    1 ]
    SOCC [     0,    0,    1,    1 ]

  Energy converged.

  @UHF Final Energy:  -341.30238810179003

   => Energetics <=

    Nuclear Repulsion Energy =              5.6039181218304401
    One-Electron Energy =                -483.2706409319891918
    Two-Electron Energy =                 136.3643347083687729
    Total Energy =                       -341.3023881017900294

  UHF NO Occupations:
  HONO-2 :    5 A1 1.9861093
  HONO-1 :    2 B1 1.0000000
  HONO-0 :    2 B2 1.0000000
  LUNO+0 :    6 A1 0.0138907
  LUNO+1 :    7 A1 0.0008014
  LUNO+2 :    3 B1 0.0000050
  LUNO+3 :    3 B2 0.0000050

Properties will be evaluated at   0.000000,   0.000000,   0.000000 Bohr

Properties computed using the SCF density matrix

  Nuclear Dipole Moment: (a.u.)
     X:     0.0000      Y:     0.0000      Z:    -1.3271

  Electronic Dipole Moment: (a.u.)
     X:     0.0000      Y:     0.0000      Z:     1.1219

  Dipole Moment: (a.u.)
     X:     0.0000      Y:     0.0000      Z:    -0.2052     Total:     0.2052

  Dipole Moment: (Debye)
     X:     0.0000      Y:     0.0000      Z:    -0.5216     Total:     0.5216

*** tstop() called on cqc05 at Fri Aug 21 04:42:30 2020
Module time:
	user time   =      50.62 seconds =       0.84 minutes
	system time =       2.71 seconds =       0.05 minutes
	total time  =         53 seconds =       0.88 minutes
Total time:
	user time   =      50.62 seconds =       0.84 minutes
	system time =       2.71 seconds =       0.05 minutes
	total time  =         53 seconds =       0.88 minutes

*** tstart() called on cqc05
*** at Fri Aug 21 04:42:30 2020

	Wfn Parameters:
	--------------------
	Wavefunction         = CCSD
	Number of irreps     = 4
	Number of MOs        = 216
	Number of active MOs = 211
	AO-Basis             = NONE
	Semicanonical        = false
	Reference            = UHF
	Print Level          = 1

	IRREP	# MOs	# FZDC	# DOCC	# SOCC	# VIRT	# FZVR
	-----	-----	------	------	------	------	------
	 A1	   81	    3	    2	    0	    76	    0
	 A2	   31	    0	    0	    0	    31	    0
	 B1	   52	    1	    0	    1	    50	    0
	 B2	   52	    1	    0	    1	    50	    0
	Transforming integrals...
	IWL integrals will be deleted.
	(OO|OO)...
	Presorting SO-basis two-electron integrals.
	Sorting File: SO Ints (nn|nn) nbuckets = 1
	Transforming the one-electron integrals and constructing Fock matrices
	Starting AA/AB first half-transformation.
	Sorting AA/AB half-transformed integrals.
	Starting BB first half-transformation.
	Sorting BB half-transformed integrals.
	First half integral transformation complete.
	Starting AA second half-transformation.
	Starting AB second half-transformation.
	Starting BB second half-transformation.
	Two-electron integral transformation complete.
	(OO|OV)...
	Starting AA second half-transformation.
	Starting AB second half-transformation.
	Starting BB second half-transformation.
	Two-electron integral transformation complete.
	(OO|VV)...
	Starting AA second half-transformation.
	Starting AB second half-transformation.
	Starting BB second half-transformation.
	Two-electron integral transformation complete.
	(OV|OO)...
	Starting AA/AB first half-transformation.
	Sorting AA/AB half-transformed integrals.
	Starting BB first half-transformation.
	Sorting BB half-transformed integrals.
	First half integral transformation complete.
	Starting AA second half-transformation.
	Starting AB second half-transformation.
	Starting BB second half-transformation.
	Two-electron integral transformation complete.
	(OV|OV)...
	Starting AA second half-transformation.
	Starting AB second half-transformation.
	Starting BB second half-transformation.
	Two-electron integral transformation complete.
	(OV|VV)...
	Starting AA second half-transformation.
	Starting AB second half-transformation.
	Starting BB second half-transformation.
	Two-electron integral transformation complete.
	(VV|OO)...
	Starting AA/AB first half-transformation.
	Sorting AA/AB half-transformed integrals.
	Starting BB first half-transformation.
	Sorting BB half-transformed integrals.
	First half integral transformation complete.
	Starting AA second half-transformation.
	Starting AB second half-transformation.
	Starting BB second half-transformation.
	Two-electron integral transformation complete.
	(VV|OV)...
	Starting AA second half-transformation.
	Starting AB second half-transformation.
	Starting BB second half-transformation.
	Two-electron integral transformation complete.
	(VV|VV)...
	Starting AA second half-transformation.
	Starting AB second half-transformation.
	Starting BB second half-transformation.
	Two-electron integral transformation complete.
	Frozen core energy     =   -338.09878636269929

	Size of irrep 0 of <AB|CD> integrals:     33.235 (MW) /    265.882 (MB)
	Size of irrep 1 of <AB|CD> integrals:     23.581 (MW) /    188.646 (MB)
	Size of irrep 2 of <AB|CD> integrals:     28.622 (MW) /    228.980 (MB)
	Size of irrep 3 of <AB|CD> integrals:     28.622 (MW) /    228.980 (MB)
	Total:                                   114.061 (MW) /    912.488 (MB)

	Size of irrep 0 of <ab|cd> integrals:     34.398 (MW) /    275.186 (MB)
	Size of irrep 1 of <ab|cd> integrals:     24.572 (MW) /    196.575 (MB)
	Size of irrep 2 of <ab|cd> integrals:     29.779 (MW) /    238.231 (MB)
	Size of irrep 3 of <ab|cd> integrals:     29.779 (MW) /    238.231 (MB)
	Total:                                   118.528 (MW) /    948.222 (MB)

	Size of irrep 0 of <Ab|Cd> integrals:    140.115 (MW) /   1120.917 (MB)
	Size of irrep 1 of <Ab|Cd> integrals:     96.275 (MW) /    770.203 (MB)
	Size of irrep 2 of <Ab|Cd> integrals:    116.791 (MW) /    934.330 (MB)
	Size of irrep 3 of <Ab|Cd> integrals:    116.791 (MW) /    934.330 (MB)
	Total:                                   469.972 (MW) /   3759.779 (MB)

	Size of irrep 0 of <IA|BC> integrals:      2.958 (MW) /     23.662 (MB)
	Size of irrep 1 of <IA|BC> integrals:      1.573 (MW) /     12.587 (MB)
	Size of irrep 2 of <IA|BC> integrals:      2.215 (MW) /     17.719 (MB)
	Size of irrep 3 of <IA|BC> integrals:      2.215 (MW) /     17.719 (MB)
	Total:                                     8.961 (MW) /     71.687 (MB)

	Size of irrep 0 of <ia|bc> integrals:      1.815 (MW) /     14.518 (MB)
	Size of irrep 1 of <ia|bc> integrals:      0.615 (MW) /      4.917 (MB)
	Size of irrep 2 of <ia|bc> integrals:      1.113 (MW) /      8.906 (MB)
	Size of irrep 3 of <ia|bc> integrals:      1.113 (MW) /      8.906 (MB)
	Total:                                     4.656 (MW) /     37.247 (MB)

	Size of irrep 0 of <Ia|Bc> integrals:      3.007 (MW) /     24.053 (MB)
	Size of irrep 1 of <Ia|Bc> integrals:      1.609 (MW) /     12.873 (MB)
	Size of irrep 2 of <Ia|Bc> integrals:      2.259 (MW) /     18.069 (MB)
	Size of irrep 3 of <Ia|Bc> integrals:      2.259 (MW) /     18.069 (MB)
	Total:                                     9.133 (MW) /     73.065 (MB)

	Size of irrep 0 of <iA|bC> integrals:      1.799 (MW) /     14.394 (MB)
	Size of irrep 1 of <iA|bC> integrals:      0.608 (MW) /      4.867 (MB)
	Size of irrep 2 of <iA|bC> integrals:      1.081 (MW) /      8.646 (MB)
	Size of irrep 3 of <iA|bC> integrals:      1.081 (MW) /      8.646 (MB)
	Total:                                     4.569 (MW) /     36.552 (MB)

	Size of irrep 0 of tIjAb amplitudes:       0.047 (MW) /      0.379 (MB)
	Size of irrep 1 of tIjAb amplitudes:       0.000 (MW) /      0.000 (MB)
	Size of irrep 2 of tIjAb amplitudes:       0.022 (MW) /      0.173 (MB)
	Size of irrep 3 of tIjAb amplitudes:       0.022 (MW) /      0.173 (MB)
	Total:                                     0.091 (MW) /      0.725 (MB)

	Nuclear Rep. energy          =      5.60391812183044
	SCF energy                   =   -341.30238810179003
	One-electron energy          =    -14.37378589594690
	Two-electron (AA) energy     =      1.99656307378346
	Two-electron (BB) energy     =      0.29949939789442
	Two-electron (AB) energy     =      3.27020356334798
	Two-electron energy          =      5.56626603502587
	Reference energy             =   -341.30238810178986

*** tstop() called on cqc05 at Fri Aug 21 04:43:40 2020
Module time:
	user time   =      43.61 seconds =       0.73 minutes
	system time =      26.21 seconds =       0.44 minutes
	total time  =         70 seconds =       1.17 minutes
Total time:
	user time   =      94.23 seconds =       1.57 minutes
	system time =      28.92 seconds =       0.48 minutes
	total time  =        123 seconds =       2.05 minutes

*** tstart() called on cqc05
*** at Fri Aug 21 04:43:40 2020

            **************************
            *                        *
            *        CCENERGY        *
            *                        *
            **************************

    Nuclear Rep. energy (wfn)     =    5.603918121830440
    SCF energy          (wfn)     = -341.302388101790029
    Reference energy    (file100) = -341.302388101789859

    Input parameters:
    -----------------
    Wave function   =     CCSD
    Reference wfn   =     UHF
    Brueckner       =     No
    Memory (Mbytes) =     250000.0
    Maxiter         =     50
    R_Convergence   =     1.0e-07
    E_Convergence   =     1.0e-06
    Restart         =     Yes
    DIIS            =     Yes
    AO Basis        =     NONE
    ABCD            =     NEW
    Cache Level     =     2
    Cache Type      =     LRU
    Print Level     =     1
    Num. of threads =     4

      * MP2 total energy                      = -341.420572761836240
      * CCSD total energy                     = -341.441242507934021
*** Psi4 exiting successfully. Buy a developer a beer!
