                               Psi4 1.4a3.dev88

  ==> Input File <==

--------------------------------------------------------------------------
# Any line starting with the # character is a comment line
memory 250000 mb
molecule molecule{
0 2
F          0.0000000000        0.0000000000        0.0000000000
}

set {
  reference uhf
  basis aug-cc-pv(5+d)z
  scf_type OUT_OF_CORE
  freeze_core true
}

energy('ccsd(t)')
--------------------------------------------------------------------------

    Molecular point group: d2h
    Geometry (in Angstrom), charge = 0, multiplicity = 2:

       Center              X                  Y                   Z               Mass
    ------------   -----------------  -----------------  -----------------  -----------------
         F            0.000000000000     0.000000000000     0.000000000000    18.998403162730

  Charge       = 0
  Multiplicity = 2
  Basis Set: AUG-CC-PV(5+D)Z
    Blend: AUG-CC-PV(5+D)Z

    Orbital Energies [Eh]
    ---------------------

    Alpha Occupied:

       1Ag   -26.406714     2Ag    -1.672445     1B2u   -0.845367
       1B3u   -0.731612     1B1u   -0.731612

    Alpha Virtual:

       2B2u    0.126855     2B1u    0.132453     2B3u    0.132453
       3Ag     0.150766     4Ag     0.515526     1B3g    0.518685
       1B1g    0.518685     1B2g    0.528538     5Ag     0.528538
       3B2u    0.569142     3B1u    0.593094     3B3u    0.593094
       6Ag     0.910485     4B2u    1.327844     4B3u    1.330116
       4B1u    1.330116     5B2u    1.336957     1Au     1.336957
       5B1u    1.348515     5B3u    1.348515     7Ag     1.592735
       2B1g    1.603220     2B3g    1.603220     2B2g    1.636781
       8Ag     1.636781     6B2u    1.938382     6B1u    1.994017
       6B3u    1.994017     9Ag     3.306606     3B3g    3.308872
       3B1g    3.308872    10Ag     3.315697     3B2g    3.315697
       4B1g    3.327178     4B3g    3.327178     4B2g    3.343492
      11Ag     3.343492    12Ag     3.586035     7B2u    3.814993
       7B1u    3.821128     7B3u    3.821128     2Au     3.839631
       8B2u    3.839631     8B1u    3.870895     8B3u    3.870895
      13Ag     4.133016     5B1g    4.151982     5B3g    4.151982
      14Ag     4.211934     5B2g    4.211934     9B2u    5.856895
       9B3u    5.940879     9B1u    5.940879    10B2u    7.930602
      10B3u    7.933062    10B1u    7.933062    11B2u    7.940456
       3Au     7.940456    11B3u    7.952825    11B1u    7.952825
      12B2u    7.970238     4Au     7.970238    12B3u    7.992794
      12B1u    7.992794    15Ag     8.924677     6B3g    8.929553
       6B1g    8.929553     6B2g    8.944225    16Ag     8.944225
       7B1g    8.968838     7B3g    8.968838    17Ag     9.003661
       7B2g    9.003661    13B2u    9.760981    13B3u    9.771435
      13B1u    9.771435     5Au     9.802960    14B2u    9.802960
      14B3u    9.856109    14B1u    9.856109    18Ag    10.735233
       8B3g   10.759124     8B1g   10.759124    19Ag    10.832862
       8B2g   10.832862    20Ag    12.775298    15B2u   19.140256
      15B1u   19.220318    15B3u   19.220318    16B2u   20.816689
      16B3u   20.820840    16B1u   20.820840    17B2u   20.833311
       6Au    20.833311    17B3u   20.854154    17B1u   20.854154
       7Au    20.883455    18B2u   20.883455    18B3u   20.921340
      18B1u   20.921340    21Ag    24.384242     9B3g   24.391308
       9B1g   24.391308    22Ag    24.412544     9B2g   24.412544
      10B3g   24.448071    10B1g   24.448071    23Ag    24.498095
      10B2g   24.498095    19B2u   25.483650    19B3u   25.495576
      19B1u   25.495576     8Au    25.531469    20B2u   25.531469
      20B1u   25.591706    20B3u   25.591706    24Ag    28.705083
      11B3g   28.727608    11B1g   28.727608    11B2g   28.796124
      25Ag    28.796124    26Ag    76.577944

    Beta Occupied:

       1Ag   -26.358841     2Ag    -1.476924     1B1u   -0.679855
       1B3u   -0.679855

    Beta Virtual:

       1B2u    0.033929     2B1u    0.133397     2B3u    0.133397
       3Ag     0.155448     2B2u    0.164551     4Ag     0.523944
       1B3g    0.524644     1B1g    0.524644     1B2g    0.527284
       5Ag     0.527284     3B1u    0.599667     3B3u    0.599667
       3B2u    0.658161     6Ag     0.933566     4B2u    1.333711
       4B1u    1.335218     4B3u    1.335218     5B2u    1.339754
       1Au     1.339754     5B1u    1.347336     5B3u    1.347336
       2B2g    1.637960     7Ag     1.637960     2B1g    1.648916
       2B3g    1.648916     8Ag     1.653362     6B1u    2.009837
       6B3u    2.009837     6B2u    2.069603     9Ag     3.315304
       3B3g    3.316982     3B1g    3.316982     3B2g    3.322020
      10Ag     3.322020     4B1g    3.330436     4B3g    3.330436
      11Ag     3.342237     4B2g    3.342237    12Ag     3.631268
       7B2u    3.848345     7B1u    3.850891     7B3u    3.850891
       2Au     3.858510     8B2u    3.858510     8B1u    3.871128
       8B3u    3.871128    13Ag     4.224489     5B2g    4.224489
       5B1g    4.240704     5B3g    4.240704    14Ag     4.247216
       9B3u    5.963102     9B1u    5.963102     9B2u    5.989751
      10B2u    7.944706    10B3u    7.946583    10B1u    7.946583
      11B2u    7.952218     3Au     7.952218    11B3u    7.961629
      11B1u    7.961629    12B2u    7.974842     4Au     7.974842
      12B3u    7.991897    12B1u    7.991897    15Ag     8.956060
       6B3g    8.959096     6B1g    8.959096     6B2g    8.968207
      16Ag     8.968207     7B3g    8.983403     7B1g    8.983403
      17Ag     9.004688     7B2g    9.004688    13B2u    9.826878
      13B3u    9.830914    13B1u    9.830914     5Au     9.843009
      14B2u    9.843009    14B3u    9.863132    14B1u    9.863132
      18Ag    10.844325     8B3g   10.845763     8B1g   10.845763
      19Ag    10.850496     8B2g   10.850496    20Ag    12.821752
      15B2u   19.233957    15B1u   19.239115    15B3u   19.239115
      16B2u   20.848293    16B3u   20.851284    16B1u   20.851284
      17B2u   20.860265     6Au    20.860265    17B3u   20.875261
      17B1u   20.875261     7Au    20.896312    18B2u   20.896312
      18B3u   20.923475    18B1u   20.923475    21Ag    24.434608
       9B3g   24.438940     9B1g   24.438940    22Ag    24.451946
       9B2g   24.451946    10B1g   24.473658    10B3g   24.473658
      23Ag    24.504126    10B2g   24.504126    19B2u   25.549965
      19B3u   25.555738    19B1u   25.555738     8Au    25.573082
      20B2u   25.573082    20B1u   25.602070    20B3u   25.602070
      24Ag    28.776798    11B3g   28.784933    11B1g   28.784933
      11B2g   28.809591    25Ag    28.809591    26Ag    76.596974

    Final Occupation by Irrep:
             Ag   B1g   B2g   B3g    Au   B1u   B2u   B3u
    DOCC [     2,    0,    0,    0,    0,    1,    0,    1 ]
    SOCC [     0,    0,    0,    0,    0,    0,    1,    0 ]

  @UHF Final Energy:   -99.41608754295166

   => Energetics <=

    Nuclear Repulsion Energy =              0.0000000000000000
    One-Electron Energy =                -139.2489484914258355
    Two-Electron Energy =                  39.8328609484741705
    Total Energy =                        -99.4160875429516580

  UHF NO Occupations:
  HONO-2 :    1B3u 1.9996554
  HONO-1 :    2 Ag 1.9985828
  HONO-0 :    1B2u 1.0000000
  LUNO+0 :    3 Ag 0.0014172
  LUNO+1 :    2B1u 0.0003446
  LUNO+2 :    2B3u 0.0003446
  LUNO+3 :    4 Ag 0.0000012

Computation Completed

Properties will be evaluated at   0.000000,   0.000000,   0.000000 [a0]

Properties computed using the SCF density matrix

  Nuclear Dipole Moment: [e a0]
     X:     0.0000      Y:     0.0000      Z:     0.0000

  Electronic Dipole Moment: [e a0]
     X:     0.0000      Y:     0.0000      Z:     0.0000

  Dipole Moment: [e a0]
     X:     0.0000      Y:     0.0000      Z:     0.0000     Total:     0.0000

  Dipole Moment: [D]
     X:     0.0000      Y:     0.0000      Z:     0.0000     Total:     0.0000

*** tstop() called on n412-041.vsc4.prov at Wed Jan 20 22:07:46 2021
Module time:
	user time   =      29.38 seconds =       0.49 minutes
	system time =       1.22 seconds =       0.02 minutes
	total time  =         17 seconds =       0.28 minutes
Total time:
	user time   =      29.38 seconds =       0.49 minutes
	system time =       1.22 seconds =       0.02 minutes
	total time  =         17 seconds =       0.28 minutes

*** tstart() called on n412-041.vsc4.prov
*** at Wed Jan 20 22:07:46 2021

	Wfn Parameters:
	--------------------
	Wavefunction         = CCSD_T
	Number of irreps     = 8
	Number of MOs        = 127
	Number of active MOs = 126
	AO-Basis             = NONE
	Semicanonical        = false
	Reference            = UHF
	Print Level          = 1

	IRREP	# MOs	# FZDC	# DOCC	# SOCC	# VIRT	# FZVR
	-----	-----	------	------	------	------	------
	 Ag	   26	    1	    1	    0	    24	    0
	 B1g	   11	    0	    0	    0	    11	    0
	 B2g	   11	    0	    0	    0	    11	    0
	 B3g	   11	    0	    0	    0	    11	    0
	 Au	   8	    0	    0	    0	    8	    0
	 B1u	   20	    0	    1	    0	    19	    0
	 B2u	   20	    0	    0	    1	    19	    0
	 B3u	   20	    0	    1	    0	    19	    0
	Transforming integrals...
	IWL integrals will be deleted.
	(OO|OO)...
	Presorting SO-basis two-electron integrals.
	Sorting File: SO Ints (nn|nn) nbuckets = 1
	Constructing frozen core operators
	Starting AA/AB first half-transformation.
	Sorting AA/AB half-transformed integrals.
	Starting BB first half-transformation.
	Sorting BB half-transformed integrals.
	First half integral transformation complete.
	Starting AA second half-transformation.
	Starting AB second half-transformation.
	Starting BB second half-transformation.
	Two-electron integral transformation complete.
	(OO|OV)...
	Starting AA second half-transformation.
	Starting AB second half-transformation.
	Starting BB second half-transformation.
	Two-electron integral transformation complete.
	(OO|VV)...
	Starting AA second half-transformation.
	Starting AB second half-transformation.
	Starting BB second half-transformation.
	Two-electron integral transformation complete.
	(OV|OO)...
	Starting AA/AB first half-transformation.
	Sorting AA/AB half-transformed integrals.
	Starting BB first half-transformation.
	Sorting BB half-transformed integrals.
	First half integral transformation complete.
	Starting AA second half-transformation.
	Starting AB second half-transformation.
	Starting BB second half-transformation.
	Two-electron integral transformation complete.
	(OV|OV)...
	Starting AA second half-transformation.
	Starting AB second half-transformation.
	Starting BB second half-transformation.
	Two-electron integral transformation complete.
	(OV|VV)...
	Starting AA second half-transformation.
	Starting AB second half-transformation.
	Starting BB second half-transformation.
	Two-electron integral transformation complete.
	(VV|OO)...
	Starting AA/AB first half-transformation.
	Sorting AA/AB half-transformed integrals.
	Starting BB first half-transformation.
	Sorting BB half-transformed integrals.
	First half integral transformation complete.
	Starting AA second half-transformation.
	Starting AB second half-transformation.
	Starting BB second half-transformation.
	Two-electron integral transformation complete.
	(VV|OV)...
	Starting AA second half-transformation.
	Starting AB second half-transformation.
	Starting BB second half-transformation.
	Two-electron integral transformation complete.
	(VV|VV)...
	Starting AA second half-transformation.
	Starting AB second half-transformation.
	Starting BB second half-transformation.
	Two-electron integral transformation complete.
	Frozen core energy     =    -75.47955345947135

	Size of irrep 0 of <AB|CD> integrals:      0.964 (MW) /      7.715 (MB)
	Size of irrep 1 of <AB|CD> integrals:      0.806 (MW) /      6.451 (MB)
	Size of irrep 2 of <AB|CD> integrals:      0.806 (MW) /      6.451 (MB)
	Size of irrep 3 of <AB|CD> integrals:      0.806 (MW) /      6.451 (MB)
	Size of irrep 4 of <AB|CD> integrals:      0.671 (MW) /      5.366 (MB)
	Size of irrep 5 of <AB|CD> integrals:      0.925 (MW) /      7.404 (MB)
	Size of irrep 6 of <AB|CD> integrals:      0.925 (MW) /      7.404 (MB)
	Size of irrep 7 of <AB|CD> integrals:      0.925 (MW) /      7.404 (MB)
	Total:                                     6.831 (MW) /     54.645 (MB)

	Size of irrep 0 of <ab|cd> integrals:      1.002 (MW) /      8.016 (MB)
	Size of irrep 1 of <ab|cd> integrals:      0.841 (MW) /      6.727 (MB)
	Size of irrep 2 of <ab|cd> integrals:      0.821 (MW) /      6.567 (MB)
	Size of irrep 3 of <ab|cd> integrals:      0.841 (MW) /      6.727 (MB)
	Size of irrep 4 of <ab|cd> integrals:      0.689 (MW) /      5.511 (MB)
	Size of irrep 5 of <ab|cd> integrals:      0.947 (MW) /      7.574 (MB)
	Size of irrep 6 of <ab|cd> integrals:      0.972 (MW) /      7.778 (MB)
	Size of irrep 7 of <ab|cd> integrals:      0.947 (MW) /      7.574 (MB)
	Total:                                     7.059 (MW) /     56.473 (MB)

	Size of irrep 0 of <Ab|Cd> integrals:      4.431 (MW) /     35.448 (MB)
	Size of irrep 1 of <Ab|Cd> integrals:      3.294 (MW) /     26.354 (MB)
	Size of irrep 2 of <Ab|Cd> integrals:      3.254 (MW) /     26.035 (MB)
	Size of irrep 3 of <Ab|Cd> integrals:      3.294 (MW) /     26.354 (MB)
	Size of irrep 4 of <Ab|Cd> integrals:      2.719 (MW) /     21.754 (MB)
	Size of irrep 5 of <Ab|Cd> integrals:      3.744 (MW) /     29.954 (MB)
	Size of irrep 6 of <Ab|Cd> integrals:      3.795 (MW) /     30.358 (MB)
	Size of irrep 7 of <Ab|Cd> integrals:      3.744 (MW) /     29.954 (MB)
	Total:                                    28.276 (MW) /    226.210 (MB)

	Size of irrep 0 of <IA|BC> integrals:      0.169 (MW) /      1.352 (MB)
	Size of irrep 1 of <IA|BC> integrals:      0.102 (MW) /      0.819 (MB)
	Size of irrep 2 of <IA|BC> integrals:      0.102 (MW) /      0.819 (MB)
	Size of irrep 3 of <IA|BC> integrals:      0.102 (MW) /      0.819 (MB)
	Size of irrep 4 of <IA|BC> integrals:      0.067 (MW) /      0.537 (MB)
	Size of irrep 5 of <IA|BC> integrals:      0.125 (MW) /      1.000 (MB)
	Size of irrep 6 of <IA|BC> integrals:      0.125 (MW) /      1.000 (MB)
	Size of irrep 7 of <IA|BC> integrals:      0.125 (MW) /      1.000 (MB)
	Total:                                     0.918 (MW) /      7.347 (MB)

	Size of irrep 0 of <ia|bc> integrals:      0.132 (MW) /      1.054 (MB)
	Size of irrep 1 of <ia|bc> integrals:      0.072 (MW) /      0.572 (MB)
	Size of irrep 2 of <ia|bc> integrals:      0.089 (MW) /      0.710 (MB)
	Size of irrep 3 of <ia|bc> integrals:      0.072 (MW) /      0.572 (MB)
	Size of irrep 4 of <ia|bc> integrals:      0.050 (MW) /      0.398 (MB)
	Size of irrep 5 of <ia|bc> integrals:      0.105 (MW) /      0.841 (MB)
	Size of irrep 6 of <ia|bc> integrals:      0.083 (MW) /      0.663 (MB)
	Size of irrep 7 of <ia|bc> integrals:      0.105 (MW) /      0.841 (MB)
	Total:                                     0.706 (MW) /      5.651 (MB)

	Size of irrep 0 of <Ia|Bc> integrals:      0.173 (MW) /      1.381 (MB)
	Size of irrep 1 of <Ia|Bc> integrals:      0.105 (MW) /      0.842 (MB)
	Size of irrep 2 of <Ia|Bc> integrals:      0.103 (MW) /      0.823 (MB)
	Size of irrep 3 of <Ia|Bc> integrals:      0.105 (MW) /      0.842 (MB)
	Size of irrep 4 of <Ia|Bc> integrals:      0.068 (MW) /      0.541 (MB)
	Size of irrep 5 of <Ia|Bc> integrals:      0.126 (MW) /      1.006 (MB)
	Size of irrep 6 of <Ia|Bc> integrals:      0.129 (MW) /      1.029 (MB)
	Size of irrep 7 of <Ia|Bc> integrals:      0.126 (MW) /      1.006 (MB)
	Total:                                     0.934 (MW) /      7.470 (MB)

	Size of irrep 0 of <iA|bC> integrals:      0.131 (MW) /      1.044 (MB)
	Size of irrep 1 of <iA|bC> integrals:      0.069 (MW) /      0.552 (MB)
	Size of irrep 2 of <iA|bC> integrals:      0.088 (MW) /      0.707 (MB)
	Size of irrep 3 of <iA|bC> integrals:      0.069 (MW) /      0.552 (MB)
	Size of irrep 4 of <iA|bC> integrals:      0.049 (MW) /      0.396 (MB)
	Size of irrep 5 of <iA|bC> integrals:      0.104 (MW) /      0.836 (MB)
	Size of irrep 6 of <iA|bC> integrals:      0.080 (MW) /      0.639 (MB)
	Size of irrep 7 of <iA|bC> integrals:      0.104 (MW) /      0.836 (MB)
	Total:                                     0.695 (MW) /      5.561 (MB)

	Size of irrep 0 of tIjAb amplitudes:       0.006 (MW) /      0.051 (MB)
	Size of irrep 1 of tIjAb amplitudes:       0.002 (MW) /      0.015 (MB)
	Size of irrep 2 of tIjAb amplitudes:       0.004 (MW) /      0.029 (MB)
	Size of irrep 3 of tIjAb amplitudes:       0.002 (MW) /      0.015 (MB)
	Size of irrep 4 of tIjAb amplitudes:       0.000 (MW) /      0.000 (MB)
	Size of irrep 5 of tIjAb amplitudes:       0.004 (MW) /      0.031 (MB)
	Size of irrep 6 of tIjAb amplitudes:       0.002 (MW) /      0.016 (MB)
	Size of irrep 7 of tIjAb amplitudes:       0.004 (MW) /      0.031 (MB)
	Total:                                     0.023 (MW) /      0.186 (MB)

	Nuclear Rep. energy          =      0.00000000000000
	SCF energy                   =    -99.41608754295166
	One-electron energy          =    -41.05539760894863
	Two-electron (AA) energy     =      4.51843847102589
	Two-electron (BB) energy     =      2.15079112317615
	Two-electron (AB) energy     =     10.44963393126615
	Two-electron energy          =     17.11886352546819
	Reference energy             =    -99.41608754295180

*** tstop() called on n412-041.vsc4.prov at Wed Jan 20 22:08:05 2021
Module time:
	user time   =       3.18 seconds =       0.05 minutes
	system time =       3.65 seconds =       0.06 minutes
	total time  =         19 seconds =       0.32 minutes
Total time:
	user time   =      32.56 seconds =       0.54 minutes
	system time =       4.87 seconds =       0.08 minutes
	total time  =         36 seconds =       0.60 minutes
            **************************
            *                        *
            *        CCENERGY        *
            *                        *
            **************************

    Nuclear Rep. energy (wfn)     =    0.000000000000000
    SCF energy          (wfn)     =  -99.416087542951658
    Reference energy    (file100) =  -99.416087542951800

    Input parameters:
    -----------------
    Wave function   =     CCSD_T
    Reference wfn   =     UHF
    Brueckner       =     No
    Memory (Mbytes) =     250000.0
    Maxiter         =     50
    R_Convergence   =     1.0e-07
    E_Convergence   =     1.0e-06
    Restart         =     Yes
    DIIS            =     Yes
    AO Basis        =     NONE
    ABCD            =     NEW
    Cache Level     =     2
    Cache Type      =     LRU
    Print Level     =     1
    Num. of threads =     48
    # Amps to Print =     10
    Print MP2 Amps? =     No
    Analyze T2 Amps =     No
    Print Pair Ener =     No
    Local CC        =     No
    SCS-MP2         =     False
    SCSN-MP2        =     False
    SCS-CCSD        =     False

MP2 correlation energy -0.2319640065564423
                Solving CC Amplitude Equations
                ------------------------------
  Iter             Energy              RMS        T1Diag      D1Diag    New D1Diag    D2Diag
  ----     ---------------------    ---------   ----------  ----------  ----------   --------
     0        -0.231964006556442    0.000e+00    0.000000    0.000000    0.000000    0.000000
     1        -0.236984456556668    2.774e-02    0.007588    0.000000    0.000000    0.000000
     2        -0.239816546915448    8.172e-03    0.008255    0.000000    0.000000    0.000000
     3        -0.240467546538270    4.066e-03    0.009426    0.000000    0.000000    0.000000
     4        -0.240380701181711    1.372e-03    0.009587    0.000000    0.000000    0.000000
     5        -0.240392333256518    5.635e-04    0.009608    0.000000    0.000000    0.000000
     6        -0.240406100074537    1.651e-04    0.009592    0.000000    0.000000    0.000000
     7        -0.240405342136021    4.896e-05    0.009585    0.000000    0.000000    0.000000
     8        -0.240405320963907    1.578e-05    0.009585    0.000000    0.000000    0.000000
     9        -0.240405243131373    4.837e-06    0.009586    0.000000    0.000000    0.000000
    10        -0.240405194634442    1.545e-06    0.009586    0.000000    0.000000    0.000000
    11        -0.240405239138957    3.973e-07    0.009586    0.000000    0.000000    0.000000
    12        -0.240405246475295    9.202e-08    0.009586    0.000000    0.000000    0.000000

      * MP2 total energy                      =  -99.648051549508239
      * CCSD total energy                     =  -99.656492789427091
      * CCSD(T) total energy                     =  -99.661665778226478
*** Psi4 exiting successfully. Buy a developer a beer!
