                               Psi4 1.4a3.dev88

  ==> Input File <==

--------------------------------------------------------------------------
# Any line starting with the # character is a comment line
memory 250000 mb
molecule molecule{
0 2
F          0.0000000000        0.0000000000        0.0000000000
}

set {
  reference uhf
  basis aug-cc-pV(d+d)Z
  scf_type OUT_OF_CORE
  freeze_core true
}

energy('ccsd(t)')
--------------------------------------------------------------------------

    Molecular point group: d2h
    Geometry (in Angstrom), charge = 0, multiplicity = 2:

       Center              X                  Y                   Z               Mass
    ------------   -----------------  -----------------  -----------------  -----------------
         F            0.000000000000     0.000000000000     0.000000000000    18.998403162730

  Charge       = 0
  Multiplicity = 2
  Basis Set: AUG-CC-PV(D+D)Z
    Blend: AUG-CC-PV(D+D)Z

    Orbital Energies [Eh]
    ---------------------

    Alpha Occupied:

       1Ag   -26.424525     2Ag    -1.679134     1B3u   -0.844701
       1B1u   -0.733188     1B2u   -0.733188

    Alpha Virtual:

       2B3u    0.224139     3Ag     0.228160     2B2u    0.237757
       2B1u    0.237757     4Ag     1.278360     1B2g    1.289810
       1B1g    1.289810     5Ag     1.324547     1B3g    1.324547
       3B3u    1.532314     3B2u    1.598664     3B1u    1.598664
       6Ag     2.190514     7Ag     4.693001     2B2g    4.715904
       2B1g    4.715904     2B3g    4.788526     8Ag     4.788526

    Beta Occupied:

       1Ag   -26.375229     2Ag    -1.485072     1B1u   -0.680372
       1B2u   -0.680372

    Beta Virtual:

       1B3u    0.032303     3Ag     0.237852     2B2u    0.240919
       2B1u    0.240919     2B3u    0.294990     4Ag     1.325416
       1B3g    1.325416     1B1g    1.336443     1B2g    1.336443
       5Ag     1.341035     3B2u    1.622392     3B1u    1.622392
       3B3u    1.732139     6Ag     2.243924     2B3g    4.807796
       7Ag     4.807796     2B2g    4.831469     2B1g    4.831469
       8Ag     4.840458

    Final Occupation by Irrep:
             Ag   B1g   B2g   B3g    Au   B1u   B2u   B3u
    DOCC [     2,    0,    0,    0,    0,    1,    1,    0 ]
    SOCC [     0,    0,    0,    0,    0,    0,    0,    1 ]

  @UHF Final Energy:   -99.38109179295733

   => Energetics <=

    Nuclear Repulsion Energy =              0.0000000000000000
    One-Electron Energy =                -139.1264009331576119
    Two-Electron Energy =                  39.7453091402002698
    Total Energy =                        -99.3810917929573350

  UHF NO Occupations:
  HONO-2 :    1B1u 1.9997217
  HONO-1 :    2 Ag 1.9987353
  HONO-0 :    1B3u 1.0000000
  LUNO+0 :    3 Ag 0.0012647
  LUNO+1 :    2B1u 0.0002783
  LUNO+2 :    2B2u 0.0002783
  LUNO+3 :    4 Ag 0.0000004

Computation Completed

Properties will be evaluated at   0.000000,   0.000000,   0.000000 [a0]

Properties computed using the SCF density matrix

  Nuclear Dipole Moment: [e a0]
     X:     0.0000      Y:     0.0000      Z:     0.0000

  Electronic Dipole Moment: [e a0]
     X:     0.0000      Y:     0.0000      Z:     0.0000

  Dipole Moment: [e a0]
     X:     0.0000      Y:     0.0000      Z:     0.0000     Total:     0.0000

  Dipole Moment: [D]
     X:     0.0000      Y:     0.0000      Z:     0.0000     Total:     0.0000

*** tstop() called on n412-039.vsc4.prov at Tue Jan 26 18:15:11 2021
Module time:
	user time   =       5.51 seconds =       0.09 minutes
	system time =       0.20 seconds =       0.00 minutes
	total time  =          0 seconds =       0.00 minutes
Total time:
	user time   =       5.51 seconds =       0.09 minutes
	system time =       0.20 seconds =       0.00 minutes
	total time  =          0 seconds =       0.00 minutes

*** tstart() called on n412-039.vsc4.prov
*** at Tue Jan 26 18:15:11 2021

	Wfn Parameters:
	--------------------
	Wavefunction         = CCSD_T
	Number of irreps     = 8
	Number of MOs        = 23
	Number of active MOs = 22
	AO-Basis             = NONE
	Semicanonical        = false
	Reference            = UHF
	Print Level          = 1

	IRREP	# MOs	# FZDC	# DOCC	# SOCC	# VIRT	# FZVR
	-----	-----	------	------	------	------	------
	 Ag	   8	    1	    1	    0	    6	    0
	 B1g	   2	    0	    0	    0	    2	    0
	 B2g	   2	    0	    0	    0	    2	    0
	 B3g	   2	    0	    0	    0	    2	    0
	 Au	   0	    0	    0	    0	    0	    0
	 B1u	   3	    0	    1	    0	    2	    0
	 B2u	   3	    0	    1	    0	    2	    0
	 B3u	   3	    0	    0	    1	    2	    0
	Transforming integrals...
	IWL integrals will be deleted.
	(OO|OO)...
	Presorting SO-basis two-electron integrals.
	Sorting File: SO Ints (nn|nn) nbuckets = 1
	Constructing frozen core operators
	Starting AA/AB first half-transformation.
	Sorting AA/AB half-transformed integrals.
	Starting BB first half-transformation.
	Sorting BB half-transformed integrals.
	First half integral transformation complete.
	Starting AA second half-transformation.
	Starting AB second half-transformation.
	Starting BB second half-transformation.
	Two-electron integral transformation complete.
	(OO|OV)...
	Starting AA second half-transformation.
	Starting AB second half-transformation.
	Starting BB second half-transformation.
	Two-electron integral transformation complete.
	(OO|VV)...
	Starting AA second half-transformation.
	Starting AB second half-transformation.
	Starting BB second half-transformation.
	Two-electron integral transformation complete.
	(OV|OO)...
	Starting AA/AB first half-transformation.
	Sorting AA/AB half-transformed integrals.
	Starting BB first half-transformation.
	Sorting BB half-transformed integrals.
	First half integral transformation complete.
	Starting AA second half-transformation.
	Starting AB second half-transformation.
	Starting BB second half-transformation.
	Two-electron integral transformation complete.
	(OV|OV)...
	Starting AA second half-transformation.
	Starting AB second half-transformation.
	Starting BB second half-transformation.
	Two-electron integral transformation complete.
	(OV|VV)...
	Starting AA second half-transformation.
	Starting AB second half-transformation.
	Starting BB second half-transformation.
	Two-electron integral transformation complete.
	(VV|OO)...
	Starting AA/AB first half-transformation.
	Sorting AA/AB half-transformed integrals.
	Starting BB first half-transformation.
	Sorting BB half-transformed integrals.
	First half integral transformation complete.
	Starting AA second half-transformation.
	Starting AB second half-transformation.
	Starting BB second half-transformation.
	Two-electron integral transformation complete.
	(VV|OV)...
	Starting AA second half-transformation.
	Starting AB second half-transformation.
	Starting BB second half-transformation.
	Two-electron integral transformation complete.
	(VV|VV)...
	Starting AA second half-transformation.
	Starting AB second half-transformation.
	Starting BB second half-transformation.
	Two-electron integral transformation complete.
	Frozen core energy     =    -75.47741967496951

	Size of irrep 0 of <AB|CD> integrals:      0.000 (MW) /      0.004 (MB)
	Size of irrep 1 of <AB|CD> integrals:      0.000 (MW) /      0.003 (MB)
	Size of irrep 2 of <AB|CD> integrals:      0.000 (MW) /      0.003 (MB)
	Size of irrep 3 of <AB|CD> integrals:      0.000 (MW) /      0.003 (MB)
	Size of irrep 4 of <AB|CD> integrals:      0.000 (MW) /      0.001 (MB)
	Size of irrep 5 of <AB|CD> integrals:      0.000 (MW) /      0.003 (MB)
	Size of irrep 6 of <AB|CD> integrals:      0.000 (MW) /      0.003 (MB)
	Size of irrep 7 of <AB|CD> integrals:      0.000 (MW) /      0.003 (MB)
	Total:                                     0.003 (MW) /      0.024 (MB)

	Size of irrep 0 of <ab|cd> integrals:      0.001 (MW) /      0.004 (MB)
	Size of irrep 1 of <ab|cd> integrals:      0.000 (MW) /      0.004 (MB)
	Size of irrep 2 of <ab|cd> integrals:      0.000 (MW) /      0.004 (MB)
	Size of irrep 3 of <ab|cd> integrals:      0.000 (MW) /      0.003 (MB)
	Size of irrep 4 of <ab|cd> integrals:      0.000 (MW) /      0.002 (MB)
	Size of irrep 5 of <ab|cd> integrals:      0.000 (MW) /      0.004 (MB)
	Size of irrep 6 of <ab|cd> integrals:      0.000 (MW) /      0.004 (MB)
	Size of irrep 7 of <ab|cd> integrals:      0.001 (MW) /      0.005 (MB)
	Total:                                     0.004 (MW) /      0.030 (MB)

	Size of irrep 0 of <Ab|Cd> integrals:      0.004 (MW) /      0.031 (MB)
	Size of irrep 1 of <Ab|Cd> integrals:      0.002 (MW) /      0.014 (MB)
	Size of irrep 2 of <Ab|Cd> integrals:      0.002 (MW) /      0.014 (MB)
	Size of irrep 3 of <Ab|Cd> integrals:      0.002 (MW) /      0.013 (MB)
	Size of irrep 4 of <Ab|Cd> integrals:      0.001 (MW) /      0.005 (MB)
	Size of irrep 5 of <Ab|Cd> integrals:      0.002 (MW) /      0.014 (MB)
	Size of irrep 6 of <Ab|Cd> integrals:      0.002 (MW) /      0.014 (MB)
	Size of irrep 7 of <Ab|Cd> integrals:      0.002 (MW) /      0.017 (MB)
	Total:                                     0.015 (MW) /      0.122 (MB)

	Size of irrep 0 of <IA|BC> integrals:      0.001 (MW) /      0.006 (MB)
	Size of irrep 1 of <IA|BC> integrals:      0.000 (MW) /      0.002 (MB)
	Size of irrep 2 of <IA|BC> integrals:      0.000 (MW) /      0.002 (MB)
	Size of irrep 3 of <IA|BC> integrals:      0.000 (MW) /      0.002 (MB)
	Size of irrep 4 of <IA|BC> integrals:      0.000 (MW) /      0.001 (MB)
	Size of irrep 5 of <IA|BC> integrals:      0.000 (MW) /      0.004 (MB)
	Size of irrep 6 of <IA|BC> integrals:      0.000 (MW) /      0.004 (MB)
	Size of irrep 7 of <IA|BC> integrals:      0.000 (MW) /      0.004 (MB)
	Total:                                     0.003 (MW) /      0.024 (MB)

	Size of irrep 0 of <ia|bc> integrals:      0.001 (MW) /      0.005 (MB)
	Size of irrep 1 of <ia|bc> integrals:      0.000 (MW) /      0.002 (MB)
	Size of irrep 2 of <ia|bc> integrals:      0.000 (MW) /      0.002 (MB)
	Size of irrep 3 of <ia|bc> integrals:      0.000 (MW) /      0.002 (MB)
	Size of irrep 4 of <ia|bc> integrals:      0.000 (MW) /      0.001 (MB)
	Size of irrep 5 of <ia|bc> integrals:      0.000 (MW) /      0.004 (MB)
	Size of irrep 6 of <ia|bc> integrals:      0.000 (MW) /      0.004 (MB)
	Size of irrep 7 of <ia|bc> integrals:      0.000 (MW) /      0.003 (MB)
	Total:                                     0.003 (MW) /      0.021 (MB)

	Size of irrep 0 of <Ia|Bc> integrals:      0.001 (MW) /      0.006 (MB)
	Size of irrep 1 of <Ia|Bc> integrals:      0.000 (MW) /      0.002 (MB)
	Size of irrep 2 of <Ia|Bc> integrals:      0.000 (MW) /      0.002 (MB)
	Size of irrep 3 of <Ia|Bc> integrals:      0.000 (MW) /      0.002 (MB)
	Size of irrep 4 of <Ia|Bc> integrals:      0.000 (MW) /      0.001 (MB)
	Size of irrep 5 of <Ia|Bc> integrals:      0.001 (MW) /      0.004 (MB)
	Size of irrep 6 of <Ia|Bc> integrals:      0.001 (MW) /      0.004 (MB)
	Size of irrep 7 of <Ia|Bc> integrals:      0.001 (MW) /      0.005 (MB)
	Total:                                     0.003 (MW) /      0.027 (MB)

	Size of irrep 0 of <iA|bC> integrals:      0.001 (MW) /      0.005 (MB)
	Size of irrep 1 of <iA|bC> integrals:      0.000 (MW) /      0.001 (MB)
	Size of irrep 2 of <iA|bC> integrals:      0.000 (MW) /      0.001 (MB)
	Size of irrep 3 of <iA|bC> integrals:      0.000 (MW) /      0.002 (MB)
	Size of irrep 4 of <iA|bC> integrals:      0.000 (MW) /      0.001 (MB)
	Size of irrep 5 of <iA|bC> integrals:      0.000 (MW) /      0.003 (MB)
	Size of irrep 6 of <iA|bC> integrals:      0.000 (MW) /      0.003 (MB)
	Size of irrep 7 of <iA|bC> integrals:      0.000 (MW) /      0.002 (MB)
	Total:                                     0.002 (MW) /      0.019 (MB)

	Size of irrep 0 of tIjAb amplitudes:       0.000 (MW) /      0.001 (MB)
	Size of irrep 1 of tIjAb amplitudes:       0.000 (MW) /      0.000 (MB)
	Size of irrep 2 of tIjAb amplitudes:       0.000 (MW) /      0.000 (MB)
	Size of irrep 3 of tIjAb amplitudes:       0.000 (MW) /      0.001 (MB)
	Size of irrep 4 of tIjAb amplitudes:       0.000 (MW) /      0.000 (MB)
	Size of irrep 5 of tIjAb amplitudes:       0.000 (MW) /      0.001 (MB)
	Size of irrep 6 of tIjAb amplitudes:       0.000 (MW) /      0.001 (MB)
	Size of irrep 7 of tIjAb amplitudes:       0.000 (MW) /      0.000 (MB)
	Total:                                     0.001 (MW) /      0.005 (MB)

	Nuclear Rep. energy          =      0.00000000000000
	SCF energy                   =    -99.38109179295733
	One-electron energy          =    -40.97131546147167
	Two-electron (AA) energy     =      4.50300098419906
	Two-electron (BB) energy     =      2.14531599115400
	Two-electron (AB) energy     =     10.41932636813081
	Two-electron energy          =     17.06764334348387
	Reference energy             =    -99.38109179295731

*** tstop() called on n412-039.vsc4.prov at Tue Jan 26 18:15:12 2021
Module time:
	user time   =       0.02 seconds =       0.00 minutes
	system time =       0.08 seconds =       0.00 minutes
	total time  =          1 seconds =       0.02 minutes
Total time:
	user time   =       5.54 seconds =       0.09 minutes
	system time =       0.28 seconds =       0.00 minutes
	total time  =          1 seconds =       0.02 minutes
            **************************
            *                        *
            *        CCENERGY        *
            *                        *
            **************************

    Nuclear Rep. energy (wfn)     =    0.000000000000000
    SCF energy          (wfn)     =  -99.381091792957335
    Reference energy    (file100) =  -99.381091792957307

    Input parameters:
    -----------------
    Wave function   =     CCSD_T
    Reference wfn   =     UHF
    Brueckner       =     No
    Memory (Mbytes) =     250000.0
    Maxiter         =     50
    R_Convergence   =     1.0e-07
    E_Convergence   =     1.0e-06
    Restart         =     Yes
    DIIS            =     Yes
    AO Basis        =     NONE
    ABCD            =     NEW
    Cache Level     =     2
    Cache Type      =     LRU
    Print Level     =     1
    Num. of threads =     48
    # Amps to Print =     10
    Print MP2 Amps? =     No
    Analyze T2 Amps =     No
    Print Pair Ener =     No
    Local CC        =     No
    SCS-MP2         =     False
    SCSN-MP2        =     False
    SCS-CCSD        =     False

MP2 correlation energy -0.1546072711921244
                Solving CC Amplitude Equations
                ------------------------------
  Iter             Energy              RMS        T1Diag      D1Diag    New D1Diag    D2Diag
  ----     ---------------------    ---------   ----------  ----------  ----------   --------
     0        -0.154607271192124    0.000e+00    0.000000    0.000000    0.000000    0.000000
     1        -0.163260431049515    3.499e-02    0.011019    0.000000    0.000000    0.000000
     2        -0.165953715689557    9.198e-03    0.011944    0.000000    0.000000    0.000000
     3        -0.166661853279128    4.859e-03    0.013585    0.000000    0.000000    0.000000
     4        -0.166642508052860    1.611e-03    0.013851    0.000000    0.000000    0.000000
     5        -0.166641571550178    5.857e-04    0.013830    0.000000    0.000000    0.000000
     6        -0.166656759177724    1.619e-04    0.013808    0.000000    0.000000    0.000000
     7        -0.166657446962863    3.553e-05    0.013801    0.000000    0.000000    0.000000
     8        -0.166657204058002    9.494e-06    0.013802    0.000000    0.000000    0.000000
     9        -0.166657114818513    3.112e-06    0.013803    0.000000    0.000000    0.000000
    10        -0.166657112384488    8.572e-07    0.013803    0.000000    0.000000    0.000000
    11        -0.166657117248601    2.086e-07    0.013803    0.000000    0.000000    0.000000
    12        -0.166657119639611    6.237e-08    0.013803    0.000000    0.000000    0.000000

    Iterations converged.

    Largest TIA Amplitudes:
              1  12        -0.0154005091
              2  14        -0.0154005091
              3  16        -0.0140674032
              0   0         0.0073867352
              1  13        -0.0041624559
              2  15        -0.0041624559
              3  17        -0.0041283796
              0   1         0.0020323308
              0   3        -0.0008563109
              0   4         0.0004282740

    Largest Tia Amplitudes:
              1  12        -0.0152870715
              2  14        -0.0152870715
              0   2        -0.0055275110
              0   0         0.0052606753
              0   5         0.0035438979
              1  13        -0.0022161616
              2  15        -0.0022161616
              0   3         0.0014399790

    Largest TIJAB Amplitudes:
      3   2  17  15        -0.0212455158
      3   1  17  13        -0.0212455158
      2   1  15  13        -0.0208763759
      2   1  10   2        -0.0150694841
      3   2   6   1         0.0120022775
      3   1   8   1         0.0120022775
      3   2  17  14        -0.0115665073
      3   1  17  12        -0.0115665073
      2   1  14  13        -0.0113239345
      2   1  15  12        -0.0113239345

    Largest Tijab Amplitudes:
      2   1  15  13        -0.0206156766
      2   1  10   1        -0.0155288718
      2   1  14  13        -0.0119287906
      2   1  15  12        -0.0119287906
      1   0  16   8        -0.0114714512
      2   0  16   6        -0.0114714512
      1   0  13   3        -0.0106568285
      2   0  15   3        -0.0106568285
      2   1  14  12        -0.0100346963
      2   1  11   4        -0.0099876996

    Largest TIjAb Amplitudes:
      1   1  13  13        -0.0382126753
      2   2  15  15        -0.0382126753
      3   2  17  15        -0.0274062395
      3   1  17  13        -0.0274062395
      1   2  13  15        -0.0273089231
      2   1  15  13        -0.0273089231
      3   0   1  16         0.0237017356
      0   1   3  13        -0.0208221567
      0   2   3  15        -0.0208221567
      1   0  13   3        -0.0206820239

    SCF energy       (wfn)                    =  -99.381091792957335
    Reference energy (file100)                =  -99.381091792957307

    Opposite-spin MP2 correlation energy      =   -0.115323256352245
    Same-spin MP2 correlation energy          =   -0.039284014839879
    Singles MP2 correlation energy            =   -0.000000000000000
    MP2 correlation energy                    =   -0.154607271192124
      * MP2 total energy                      =  -99.535699064149426
      * CCSD total energy                     =  -99.547748912596916
      * CCSD(T) total energy                     =  -99.550069461258801
*** Psi4 exiting successfully. Buy a developer a beer!
