                               Psi4 1.2a1.dev939

  ==> Input File <==

--------------------------------------------------------------------------
# Any line starting with the # character is a comment line

memory 32000 mb

molecule molecule {
0 1
N          0.0000000000        0.0000000000       -0.6018924656
C          0.0000000000        0.0000000000        0.5651392093
H          0.0000000000        0.0000000000        1.6297003342
}

set {
  reference rhf
  basis aug-cc-pv(D+d)z
  scf_type OUT_OF_CORE
  freeze_core true
}

energy('ccsd')
--------------------------------------------------------------------------

    Molecular point group: c2v

    Geometry (in Angstrom), charge = 0, multiplicity = 1:

       Center              X                  Y                   Z               Mass
    ------------   -----------------  -----------------  -----------------  -----------------
           N          0.000000000000     0.000000000000    -0.601736179223    14.003074004780
           C          0.000000000000     0.000000000000     0.565295495677    12.000000000000
           H          0.000000000000     0.000000000000     1.629856620577     1.007825032070

  Charge       = 0
  Multiplicity = 1
  Basis Set: AUG-CC-PV(D+D)Z
    Blend: AUG-CC-PV(D+D)Z

    Orbital Energies (a.u.)
    -----------------------

    Doubly Occupied:

       1A1   -15.616206     2A1   -11.308058     3A1    -1.235156
       4A1    -0.815688     5A1    -0.582923     1B2    -0.492793
       1B1    -0.492793

  @RHF Final Energy:   -92.88564916910566

   => Energetics <=

    Nuclear Repulsion Energy =             23.6868390704135656
    One-Electron Energy =                -172.0577391240870213
    Two-Electron Energy =                  55.4852508845678045
    Total Energy =                        -92.8856491691056618
      * MP2 total energy                      =  -93.183055290140857
      * CCSD total energy                     =  -93.190610534664827
*** Psi4 exiting successfully. Buy a developer a beer!
