                               Psi4 1.2a1.dev939

  ==> Input File <==

--------------------------------------------------------------------------
# Any line starting with the # character is a comment line

memory 32000 mb

molecule molecule {
0 1
N          0.0000000000        0.0000000000       -0.6018924656
C          0.0000000000        0.0000000000        0.5651392093
H          0.0000000000        0.0000000000        1.6297003342
}

set {
  reference rhf
  basis aug-cc-pv(Q+d)z
  scf_type OUT_OF_CORE
  freeze_core true
}

energy('ccsd')
--------------------------------------------------------------------------

    Molecular point group: c2v

    Geometry (in Angstrom), charge = 0, multiplicity = 1:

       Center              X                  Y                   Z               Mass
    ------------   -----------------  -----------------  -----------------  -----------------
           N          0.000000000000     0.000000000000    -0.601736179223    14.003074004780
           C          0.000000000000     0.000000000000     0.565295495677    12.000000000000
           H          0.000000000000     0.000000000000     1.629856620577     1.007825032070

  Charge       = 0
  Multiplicity = 1
  Basis Set: AUG-CC-PV(Q+D)Z
    Blend: AUG-CC-PV(Q+D)Z

    Orbital Energies (a.u.)
    -----------------------

    Doubly Occupied:

       1A1   -15.603441     2A1   -11.296223     3A1    -1.230088
       4A1    -0.815706     5A1    -0.583030     1B2    -0.492871
       1B1    -0.492871

  @RHF Final Energy:   -92.91206299769962

   => Energetics <=

    Nuclear Repulsion Energy =             23.6868390704135656
    One-Electron Energy =                -172.1693467705036937
    Two-Electron Energy =                  55.5704447023905104
    Total Energy =                        -92.9120629976996213
      * MP2 total energy                      =  -93.284739007133183
      * CCSD total energy                     =  -93.283195497794622
*** Psi4 exiting successfully. Buy a developer a beer!
