                               Psi4 1.2a1.dev938

  ==> Input File <==

--------------------------------------------------------------------------
# Any line starting with the # character is a comment line
memory 250000 mb
molecule molecule{
0 2
O          0.0000000000        0.0000000000       -0.5412437487
N          0.0000000000        0.0000000000        0.6182452136
}

set {
  reference uhf
  basis aug-cc-pv(q+d)z
  scf_type OUT_OF_CORE
  freeze_core true
}

energy('ccsd')
--------------------------------------------------------------------------

    Molecular point group: c2v

    Geometry (in Angstrom), charge = 0, multiplicity = 2:

       Center              X                  Y                   Z               Mass
    ------------   -----------------  -----------------  -----------------  -----------------
           O          0.000000000000     0.000000000000    -0.541249946793    15.994914619560
           N          0.000000000000     0.000000000000     0.618239015507    14.003074004780

  Charge       = 0
  Multiplicity = 2
  Basis Set: AUG-CC-PV(Q+D)Z
    Blend: AUG-CC-PV(Q+D)Z

    Orbital Energies (a.u.)
    -----------------------

    Alpha Occupied:

       1A1   -20.698449     2A1   -15.736687     3A1    -1.604232
       4A1    -0.972584     1B2    -0.786501     5A1    -0.698354
       1B1    -0.639336     2B2    -0.431797

    Alpha Virtual:

       2B1     0.069669     6A1     0.073774     7A1     0.101864
       3B2     0.107633     3B1     0.113063     8A1     0.156647
       4B2     0.159799     4B1     0.170329     9A1     0.271335
       1A2     0.328717    10A1     0.328829    11A1     0.386324
       5B2     0.406864     5B1     0.413483    12A1     0.511013
       6B2     0.516956     6B1     0.523851    13A1     0.544831
       2A2     0.547339    14A1     0.549884     7B2     0.607109
       7B1     0.626063    15A1     0.715721    16A1     0.851333
       8B2     0.919971    17A1     0.922356     8B1     0.939016
       9B2     0.989463     9B1     0.989481     3A2     1.059900
      18A1     1.060376    10B2     1.115721    10B1     1.116422
      19A1     1.133759     4A2     1.134811    20A1     1.151539
      21A1     1.406126    11B2     1.410558    11B1     1.416278
      12B2     1.449457    12B1     1.449484     5A2     1.529043
      22A1     1.529178    23A1     1.639555    13B2     1.711202
      13B1     1.716468    24A1     1.815982    14B2     1.867858
      14B1     1.890095     6A2     1.911293    25A1     1.911725
      26A1     2.018395    15B2     2.427734    15B1     2.442471
      27A1     2.784738     7A2     2.784738    28A1     2.834437
      29A1     2.944882    16B2     2.991178    16B1     2.991182
      17B2     3.042274    17B1     3.043139     8A2     3.058552
      30A1     3.059485    18B2     3.089809    18B1     3.089831
      31A1     3.133269     9A2     3.133378    19B2     3.188071
      19B1     3.197988    32A1     3.259099    33A1     3.299447
      20B1     3.416783    20B2     3.418386    10A2     3.615534
      34A1     3.615597    11A2     3.725692    35A1     3.725692
      21B1     3.957659    21B2     3.960941    22B2     4.062978
      22B1     4.062981    36A1     4.086198    37A1     4.170973
      12A2     4.189404    38A1     4.190230    23B1     4.261300
      23B2     4.266147    24B1     4.364231    24B2     4.364241
      39A1     4.438083    13A2     4.525579    40A1     4.525930
      41A1     5.195083    25B1     5.400876    25B2     5.403562
      14A2     5.540288    42A1     5.540358    43A1     5.828126
      26B1     6.056999    26B2     6.060022    44A1     6.554220
      45A1     8.144781    15A2     8.144781    27B1     8.200693
      27B2     8.200707    28B1     8.375380    28B2     8.387075
      46A1     8.429125    16A2     8.429664    29B1     8.597292
      29B2     8.604916    47A1     8.692492    30B1     9.061210
      30B2     9.061211    48A1     9.075230    17A2     9.206680
      49A1     9.207499    31B1     9.510015    31B2     9.521073
      18A2     9.711239    50A1     9.711282    51A1     9.849787
      19A2    10.580422    52A1    10.580422    32B1    10.624639
      32B2    10.626657    33B2    10.832372    33B1    10.832372
      53A1    10.886519    34B1    11.293815    34B2    11.297667
      54A1    11.325752    20A2    11.325915    55A1    11.630730
      35B1    11.762158    35B2    11.775593    36B1    11.830059
      36B2    11.830059    56A1    12.270608    21A2    12.270907
      57A1    12.430046    37B1    12.783880    37B2    12.794855
      22A2    12.804424    58A1    12.804457    59A1    14.173792
      38B1    14.456311    38B2    14.466091    60A1    15.769874
      61A1    32.532238    62A1    43.233833

    Beta Occupied:

       1A1   -20.693928     2A1   -15.700275     3A1    -1.573415
       4A1    -0.888511     1B1    -0.666695     5A1    -0.651135
       1B2    -0.613970

    Beta Virtual:

       6A1     0.074033     2B1     0.078310     2B2     0.094327
       7A1     0.104624     3B1     0.133652     3B2     0.147111
       8A1     0.157714     4B1     0.170734     4B2     0.191418
       9A1     0.272400     1A2     0.332870    10A1     0.332897
      11A1     0.388469     5B1     0.410503     5B2     0.417394
      12A1     0.517359     6B1     0.532205     6B2     0.543240
      13A1     0.546807     2A2     0.546821    14A1     0.559520
       7B1     0.641805     7B2     0.658969    15A1     0.732250
      16A1     0.866082     8B1     0.925407    17A1     0.934685
       8B2     0.941900     9B1     0.994545     9B2     0.994555
       3A2     1.098061    18A1     1.098101    10B1     1.118393
      10B2     1.131009    19A1     1.135875     4A2     1.136719
      20A1     1.157457    21A1     1.408428    11B1     1.416534
      11B2     1.434620    12B1     1.449475    12B2     1.449586
       5A2     1.532263    22A1     1.532516    23A1     1.643753
      13B1     1.719014    13B2     1.734809    24A1     1.822629
      14B1     1.905401     6A2     1.917965    25A1     1.918149
      14B2     1.931369    26A1     2.022067    15B1     2.446462
      15B2     2.477666    27A1     2.795186     7A2     2.795186
      28A1     2.863331    29A1     2.962323    16B1     3.000248
      16B2     3.000270    17B1     3.046527    17B2     3.073267
      30A1     3.100242     8A2     3.100417    18B1     3.118954
      18B2     3.119326    31A1     3.167629     9A2     3.167640
      19B1     3.196481    19B2     3.227912    32A1     3.272771
      33A1     3.308858    20B1     3.423868    20B2     3.450380
      10A2     3.636695    34A1     3.637334    11A2     3.725944
      35A1     3.725944    21B1     3.954947    21B2     3.981472
      22B1     4.065916    22B2     4.066113    36A1     4.089437
      37A1     4.185393    12A2     4.195630    38A1     4.197311
      23B1     4.257662    23B2     4.279612    24B1     4.367193
      24B2     4.367235    39A1     4.440031    13A2     4.531037
      40A1     4.532047    41A1     5.200711    25B1     5.397100
      25B2     5.426615    14A2     5.552035    42A1     5.552504
      43A1     5.844329    26B1     6.059890    26B2     6.093458
      44A1     6.566320    45A1     8.177688    15A2     8.177688
      27B1     8.223452    27B2     8.223513    28B1     8.392921
      28B2     8.426381    46A1     8.446535    16A2     8.447702
      29B1     8.617955    29B2     8.659023    47A1     8.706141
      48A1     9.096930    30B1     9.115110    30B2     9.115155
      17A2     9.242783    49A1     9.246670    31B1     9.519733
      31B2     9.548962    50A1     9.768953    18A2     9.768983
      51A1     9.858210    52A1    10.582481    19A2    10.582481
      32B1    10.624677    32B2    10.664659    33B1    10.834239
      33B2    10.834255    53A1    10.899317    34B1    11.289479
      34B2    11.330373    54A1    11.330686    20A2    11.331207
      55A1    11.635265    35B1    11.757945    35B2    11.791250
      36B1    11.835838    36B2    11.835867    56A1    12.272315
      21A2    12.273906    57A1    12.435610    37B1    12.776169
      37B2    12.809005    22A2    12.812783    58A1    12.812990
      59A1    14.176988    38B1    14.449891    38B2    14.485731
      60A1    15.774325    61A1    32.554388    62A1    43.236772

    Final Occupation by Irrep:
             A1    A2    B1    B2
    DOCC [     5,    0,    1,    1 ]
    SOCC [     0,    0,    0,    1 ]

  Energy converged.

  @UHF Final Energy:  -129.30558348388769

   => Energetics <=

    Nuclear Repulsion Energy =             25.5577453900528582
    One-Electron Energy =                -227.3707894278786057
    Two-Electron Energy =                  72.5074605539380741
    PCM Polarization Energy =               0.0000000000000000
    Total Energy =                       -129.3055834838876876

    Alert: EFP and PCM quantities not currently incorporated into SCF psivars.
  UHF NO Occupations:
  HONO-2 :    1 B2 1.9963991
  HONO-1 :    1 B1 1.9680430
  HONO-0 :    2 B2 1.0000000
  LUNO+0 :    2 B1 0.0319570
  LUNO+1 :    3 B2 0.0036009
  LUNO+2 :    6 A1 0.0024360
  LUNO+3 :    7 A1 0.0003526

Properties will be evaluated at   0.000000,   0.000000,   0.000000 Bohr

Properties computed using the SCF density matrix

  Nuclear Dipole Moment: (a.u.)
     X:     0.0000      Y:     0.0000      Z:    -0.0044

  Electronic Dipole Moment: (a.u.)
     X:     0.0000      Y:     0.0000      Z:     0.1027

  Dipole Moment: (a.u.)
     X:     0.0000      Y:     0.0000      Z:     0.0983     Total:     0.0983

  Dipole Moment: (Debye)
     X:     0.0000      Y:     0.0000      Z:     0.2499     Total:     0.2499

*** tstop() called on cqc05 at Thu Aug 20 21:27:56 2020
Module time:
	user time   =      18.15 seconds =       0.30 minutes
	system time =       1.31 seconds =       0.02 minutes
	total time  =         19 seconds =       0.32 minutes
Total time:
	user time   =      18.15 seconds =       0.30 minutes
	system time =       1.31 seconds =       0.02 minutes
	total time  =         19 seconds =       0.32 minutes

*** tstart() called on cqc05
*** at Thu Aug 20 21:27:56 2020

	Wfn Parameters:
	--------------------
	Wavefunction         = CCSD
	Number of irreps     = 4
	Number of MOs        = 160
	Number of active MOs = 158
	AO-Basis             = NONE
	Semicanonical        = false
	Reference            = UHF
	Print Level          = 1

	IRREP	# MOs	# FZDC	# DOCC	# SOCC	# VIRT	# FZVR
	-----	-----	------	------	------	------	------
	 A1	   62	    2	    3	    0	    57	    0
	 A2	   22	    0	    0	    0	    22	    0
	 B1	   38	    0	    1	    0	    37	    0
	 B2	   38	    0	    1	    1	    36	    0
	Transforming integrals...
	IWL integrals will be deleted.
	(OO|OO)...
	Presorting SO-basis two-electron integrals.
	Sorting File: SO Ints (nn|nn) nbuckets = 1
	Transforming the one-electron integrals and constructing Fock matrices
	Starting AA/AB first half-transformation.
	Sorting AA/AB half-transformed integrals.
	Starting BB first half-transformation.
	Sorting BB half-transformed integrals.
	First half integral transformation complete.
	Starting AA second half-transformation.
	Starting AB second half-transformation.
	Starting BB second half-transformation.
	Two-electron integral transformation complete.
	(OO|OV)...
	Starting AA second half-transformation.
	Starting AB second half-transformation.
	Starting BB second half-transformation.
	Two-electron integral transformation complete.
	(OO|VV)...
	Starting AA second half-transformation.
	Starting AB second half-transformation.
	Starting BB second half-transformation.
	Two-electron integral transformation complete.
	(OV|OO)...
	Starting AA/AB first half-transformation.
	Sorting AA/AB half-transformed integrals.
	Starting BB first half-transformation.
	Sorting BB half-transformed integrals.
	First half integral transformation complete.
	Starting AA second half-transformation.
	Starting AB second half-transformation.
	Starting BB second half-transformation.
	Two-electron integral transformation complete.
	(OV|OV)...
	Starting AA second half-transformation.
	Starting AB second half-transformation.
	Starting BB second half-transformation.
	Two-electron integral transformation complete.
	(OV|VV)...
	Starting AA second half-transformation.
	Starting AB second half-transformation.
	Starting BB second half-transformation.
	Two-electron integral transformation complete.
	(VV|OO)...
	Starting AA/AB first half-transformation.
	Sorting AA/AB half-transformed integrals.
	Starting BB first half-transformation.
	Sorting BB half-transformed integrals.
	First half integral transformation complete.
	Starting AA second half-transformation.
	Starting AB second half-transformation.
	Starting BB second half-transformation.
	Two-electron integral transformation complete.
	(VV|OV)...
	Starting AA second half-transformation.
	Starting AB second half-transformation.
	Starting BB second half-transformation.
	Two-electron integral transformation complete.
	(VV|VV)...
	Starting AA second half-transformation.
	Starting AB second half-transformation.
	Starting BB second half-transformation.
	Two-electron integral transformation complete.
	Frozen core energy     =   -115.70836309425675

	Size of irrep 0 of <AB|CD> integrals:      9.753 (MW) /     78.025 (MB)
	Size of irrep 1 of <AB|CD> integrals:      6.687 (MW) /     53.499 (MB)
	Size of irrep 2 of <AB|CD> integrals:      8.416 (MW) /     67.326 (MB)
	Size of irrep 3 of <AB|CD> integrals:      8.214 (MW) /     65.712 (MB)
	Total:                                    33.070 (MW) /    264.562 (MB)

	Size of irrep 0 of <ab|cd> integrals:      9.979 (MW) /     79.834 (MB)
	Size of irrep 1 of <ab|cd> integrals:      6.880 (MW) /     55.041 (MB)
	Size of irrep 2 of <ab|cd> integrals:      8.544 (MW) /     68.351 (MB)
	Size of irrep 3 of <ab|cd> integrals:      8.544 (MW) /     68.351 (MB)
	Total:                                    33.947 (MW) /    271.578 (MB)

	Size of irrep 0 of <Ab|Cd> integrals:     41.396 (MW) /    331.171 (MB)
	Size of irrep 1 of <Ab|Cd> integrals:     27.134 (MW) /    217.069 (MB)
	Size of irrep 2 of <Ab|Cd> integrals:     33.919 (MW) /    271.352 (MB)
	Size of irrep 3 of <Ab|Cd> integrals:     33.513 (MW) /    268.100 (MB)
	Total:                                   135.962 (MW) /   1087.692 (MB)

	Size of irrep 0 of <IA|BC> integrals:      1.791 (MW) /     14.332 (MB)
	Size of irrep 1 of <IA|BC> integrals:      0.910 (MW) /      7.282 (MB)
	Size of irrep 2 of <IA|BC> integrals:      1.230 (MW) /      9.840 (MB)
	Size of irrep 3 of <IA|BC> integrals:      1.399 (MW) /     11.189 (MB)
	Total:                                     5.330 (MW) /     42.643 (MB)

	Size of irrep 0 of <ia|bc> integrals:      1.585 (MW) /     12.683 (MB)
	Size of irrep 1 of <ia|bc> integrals:      0.734 (MW) /      5.876 (MB)
	Size of irrep 2 of <ia|bc> integrals:      1.111 (MW) /      8.886 (MB)
	Size of irrep 3 of <ia|bc> integrals:      1.111 (MW) /      8.886 (MB)
	Total:                                     4.541 (MW) /     36.331 (MB)

	Size of irrep 0 of <Ia|Bc> integrals:      1.814 (MW) /     14.515 (MB)
	Size of irrep 1 of <Ia|Bc> integrals:      0.922 (MW) /      7.376 (MB)
	Size of irrep 2 of <Ia|Bc> integrals:      1.235 (MW) /      9.878 (MB)
	Size of irrep 3 of <Ia|Bc> integrals:      1.430 (MW) /     11.439 (MB)
	Total:                                     5.401 (MW) /     43.208 (MB)

	Size of irrep 0 of <iA|bC> integrals:      1.570 (MW) /     12.559 (MB)
	Size of irrep 1 of <iA|bC> integrals:      0.724 (MW) /      5.792 (MB)
	Size of irrep 2 of <iA|bC> integrals:      1.107 (MW) /      8.852 (MB)
	Size of irrep 3 of <iA|bC> integrals:      1.083 (MW) /      8.660 (MB)
	Total:                                     4.483 (MW) /     35.864 (MB)

	Size of irrep 0 of tIjAb amplitudes:       0.077 (MW) /      0.618 (MB)
	Size of irrep 1 of tIjAb amplitudes:       0.016 (MW) /      0.125 (MB)
	Size of irrep 2 of tIjAb amplitudes:       0.035 (MW) /      0.280 (MB)
	Size of irrep 3 of tIjAb amplitudes:       0.052 (MW) /      0.417 (MB)
	Total:                                     0.180 (MW) /      1.439 (MB)

	Nuclear Rep. energy          =     25.55774539005286
	SCF energy                   =   -129.30558348388769
	One-electron energy          =    -68.78340209330327
	Two-electron (AA) energy     =      7.34575217938482
	Two-electron (BB) energy     =      4.98034741093054
	Two-electron (AB) energy     =     17.30233672330276
	Two-electron energy          =     29.62843631361812
	Reference energy             =   -129.30558348388905

*** tstop() called on cqc05 at Thu Aug 20 21:28:18 2020
Module time:
	user time   =      13.19 seconds =       0.22 minutes
	system time =       8.85 seconds =       0.15 minutes
	total time  =         22 seconds =       0.37 minutes
Total time:
	user time   =      31.34 seconds =       0.52 minutes
	system time =      10.16 seconds =       0.17 minutes
	total time  =         41 seconds =       0.68 minutes

*** tstart() called on cqc05
*** at Thu Aug 20 21:28:18 2020

            **************************
            *                        *
            *        CCENERGY        *
            *                        *
            **************************

    Nuclear Rep. energy (wfn)     =   25.557745390052858
    SCF energy          (wfn)     = -129.305583483887688
    Reference energy    (file100) = -129.305583483889052

    Input parameters:
    -----------------
    Wave function   =     CCSD
    Reference wfn   =     UHF
    Brueckner       =     No
    Memory (Mbytes) =     250000.0
    Maxiter         =     50
    R_Convergence   =     1.0e-07
    E_Convergence   =     1.0e-06
    Restart         =     Yes
    DIIS            =     Yes
    AO Basis        =     NONE
    ABCD            =     NEW
    Cache Level     =     2
    Cache Type      =     LRU
    Print Level     =     1
    Num. of threads =     4
    # Amps to Print =     10
    Print MP2 Amps? =     No
    Analyze T2 Amps =     No
    Print Pair Ener =     No
    Local CC        =     No
    SCS-MP2         =     False
    SCSN-MP2        =     False
    SCS-CCSD        =     False

MP2 correlation energy -0.4264887866545849
                Solving CC Amplitude Equations
                ------------------------------
  Iter             Energy              RMS        T1Diag      D1Diag    New D1Diag    D2Diag
  ----     ---------------------    ---------   ----------  ----------  ----------   --------
     0        -0.426488786659572    0.000e+00    0.000002    0.000000    0.000000    0.000000
     1        -0.409800711802250    1.020e-01    0.025437    0.000000    0.000000    0.000000
     2        -0.425854854030064    3.774e-02    0.028105    0.000000    0.000000    0.000000
     3        -0.431022050313457    2.639e-02    0.040003    0.000000    0.000000    0.000000
     4        -0.431080050308345    1.182e-02    0.045644    0.000000    0.000000    0.000000
     5        -0.431257743726563    5.924e-03    0.049785    0.000000    0.000000    0.000000
     6        -0.431321177437718    1.637e-03    0.050374    0.000000    0.000000    0.000000
     7        -0.431328226907292    4.918e-04    0.050413    0.000000    0.000000    0.000000
     8        -0.431332700438351    1.910e-04    0.050417    0.000000    0.000000    0.000000
     9        -0.431329763930123    8.049e-05    0.050416    0.000000    0.000000    0.000000
    10        -0.431330650597606    3.890e-05    0.050412    0.000000    0.000000    0.000000
    11        -0.431331004132181    1.564e-05    0.050414    0.000000    0.000000    0.000000
    12        -0.431331731689671    5.706e-06    0.050414    0.000000    0.000000    0.000000
    13        -0.431331880210974    2.001e-06    0.050414    0.000000    0.000000    0.000000
    14        -0.431331883061982    5.272e-07    0.050414    0.000000    0.000000    0.000000
    15        -0.431331883361364    2.453e-07    0.050414    0.000000    0.000000    0.000000
    16        -0.431331877980988    9.077e-08    0.050414    0.000000    0.000000    0.000000
    16        -0.431331877980988    9.077e-08    0.050414    0.000000    0.000000    0.000000

    Iterations converged.

      * MP2 total energy                      = -129.732072270543625
      * CCSD total energy                     = -129.736915361870047
*** Psi4 exiting successfully. Buy a developer a beer!
