                               Psi4 1.2a1.dev938

  ==> Input File <==

--------------------------------------------------------------------------
# Any line starting with the # character is a comment line
memory 250000 mb
molecule molecule{
0 2
O          0.0000000000        0.0000000000       -0.5412437487
N          0.0000000000        0.0000000000        0.6182452136
}

set {
  reference uhf
  basis aug-cc-pv(t+d)z
  scf_type OUT_OF_CORE
  freeze_core true
}

energy('ccsd')
--------------------------------------------------------------------------

    Molecular point group: c2v

    Geometry (in Angstrom), charge = 0, multiplicity = 2:

       Center              X                  Y                   Z               Mass
    ------------   -----------------  -----------------  -----------------  -----------------
           O          0.000000000000     0.000000000000    -0.541249946793    15.994914619560
           N          0.000000000000     0.000000000000     0.618239015507    14.003074004780

  Charge       = 0
  Multiplicity = 2
  Basis Set: AUG-CC-PV(T+D)Z
    Blend: AUG-CC-PV(T+D)Z

    Orbital Energies (a.u.)
    -----------------------

    Alpha Occupied:

       1A1   -20.701497     2A1   -15.738607     3A1    -1.605720
       4A1    -0.973163     1B1    -0.786568     5A1    -0.698572
       1B2    -0.639800     2B1    -0.431711

    Alpha Virtual:

       2B2     0.070492     6A1     0.084911     7A1     0.118064
       3B1     0.124859     3B2     0.130671     8A1     0.185430
       4B1     0.193569     4B2     0.207419     9A1     0.317757
       1A2     0.435207    10A1     0.435284    11A1     0.504248
       5B1     0.547632     5B2     0.554961    12A1     0.627391
       6B1     0.667313     6B2     0.680085    13A1     0.693605
       2A2     0.745125    14A1     0.745263     7B1     0.823052
       7B2     0.848217    15A1     0.874779    16A1     1.042729
       8B1     1.179883     8B2     1.203630    17A1     1.403240
       3A2     1.448207     9B2     1.449275     9B1     1.449275
      18A1     1.449678    10B1     1.583158    10B2     1.589350
      19A1     1.649153     4A2     1.649465    20A1     1.684745
      21A1     1.916619    11B1     1.936851    11B2     1.939231
      12B1     2.149059    12B2     2.149061     5A2     2.201428
      22A1     2.201583    23A1     2.431657    13B1     2.504364
      13B2     2.507203    24A1     2.674329     6A2     2.674878
      14B1     2.696709    14B2     2.715859    25A1     2.746723
      26A1     3.312715    15B1     3.707835    15B2     3.727995
      27A1     4.200692    16B1     4.543477    16B2     4.561740
      17B1     4.784816    17B2     4.784818    28A1     4.808108
       7A2     4.808139    29A1     5.017017     8A2     5.017190
      30A1     5.034082    18B1     5.041461    18B2     5.041480
      31A1     5.100993    32A1     5.557552    19B2     5.670598
      19B1     5.674344    20B1     6.444501    20B2     6.444501
      33A1     6.756053     9A2     6.756064    10A2     7.012246
      34A1     7.012360    21B2     7.345476    21B1     7.348427
      35A1     7.452323    22B2     7.452359    22B1     7.454159
      36A1     7.752201    37A1    13.086509    38A1    15.342054

    Beta Occupied:

       1A1   -20.696706     2A1   -15.702509     3A1    -1.574742
       4A1    -0.889113     1B2    -0.666413     5A1    -0.651450
       1B1    -0.614068

    Beta Virtual:

       2B2     0.082268     6A1     0.085307     2B1     0.103125
       7A1     0.121712     3B2     0.151150     3B1     0.167087
       8A1     0.186505     4B2     0.205806     4B1     0.223210
       9A1     0.319065    10A1     0.443744     1A2     0.443812
      11A1     0.512645     5B2     0.552332     5B1     0.561768
      12A1     0.650727    13A1     0.695841     6B2     0.696322
       6B1     0.713638     2A2     0.745245    14A1     0.745885
       7B2     0.858467     7B1     0.879667    15A1     0.892844
      16A1     1.054321     8B2     1.188124     8B1     1.209741
      17A1     1.416728     9B2     1.461434     9B1     1.461437
       3A2     1.502068    18A1     1.502489    10B2     1.597099
      10B1     1.618445    19A1     1.657776     4A2     1.659561
      20A1     1.697660    21A1     1.926381    11B2     1.940298
      11B1     1.963819    12B2     2.149884    12B1     2.149890
      22A1     2.209003     5A2     2.209058    23A1     2.435469
      13B2     2.505315    13B1     2.526633    24A1     2.679848
       6A2     2.681555    14B2     2.728177    25A1     2.754426
      14B1     2.760021    26A1     3.336457    15B2     3.740780
      15B1     3.779447    27A1     4.224412    16B2     4.552340
      16B1     4.591566    17B2     4.834672    17B1     4.834714
      28A1     4.845540     7A2     4.846374    29A1     5.051212
      18B2     5.064084    30A1     5.092154     8A2     5.094943
      18B1     5.098081    31A1     5.121893    32A1     5.569226
      19B2     5.673219    19B1     5.707152    20B2     6.448110
      20B1     6.448117    33A1     6.761773     9A2     6.761786
      10A2     7.021814    34A1     7.021845    21B2     7.336653
      21B1     7.373394    22B2     7.442924    35A1     7.458726
      22B1     7.478326    36A1     7.755999    37A1    13.108414
      38A1    15.349914

    Final Occupation by Irrep:
             A1    A2    B1    B2
    DOCC [     5,    0,    1,    1 ]
    SOCC [     0,    0,    1,    0 ]

  Energy converged.

  @UHF Final Energy:  -129.29708011921488

   => Energetics <=

    Nuclear Repulsion Energy =             25.5577453900528582
    One-Electron Energy =                -227.3390122841839229
    Two-Electron Energy =                  72.4841867749162105
    PCM Polarization Energy =               0.0000000000000000
    Total Energy =                       -129.2970801192148542

    Alert: EFP and PCM quantities not currently incorporated into SCF psivars.
  UHF NO Occupations:
  HONO-2 :    1 B1 1.9964207
  HONO-1 :    1 B2 1.9692111
  HONO-0 :    2 B1 1.0000000
  LUNO+0 :    2 B2 0.0307889
  LUNO+1 :    3 B1 0.0035793
  LUNO+2 :    6 A1 0.0023975
  LUNO+3 :    7 A1 0.0003462

Properties will be evaluated at   0.000000,   0.000000,   0.000000 Bohr

Properties computed using the SCF density matrix

  Nuclear Dipole Moment: (a.u.)
     X:     0.0000      Y:     0.0000      Z:    -0.0044

  Electronic Dipole Moment: (a.u.)
     X:     0.0000      Y:     0.0000      Z:     0.1038

  Dipole Moment: (a.u.)
     X:     0.0000      Y:     0.0000      Z:     0.0994     Total:     0.0994

  Dipole Moment: (Debye)
     X:     0.0000      Y:     0.0000      Z:     0.2525     Total:     0.2525

*** tstop() called on cqc05 at Thu Aug 20 20:03:37 2020
Module time:
	user time   =       2.78 seconds =       0.05 minutes
	system time =       0.17 seconds =       0.00 minutes
	total time  =          2 seconds =       0.03 minutes
Total time:
	user time   =       2.78 seconds =       0.05 minutes
	system time =       0.17 seconds =       0.00 minutes
	total time  =          2 seconds =       0.03 minutes

*** tstart() called on cqc05
*** at Thu Aug 20 20:03:37 2020

	Wfn Parameters:
	--------------------
	Wavefunction         = CCSD
	Number of irreps     = 4
	Number of MOs        = 92
	Number of active MOs = 90
	AO-Basis             = NONE
	Semicanonical        = false
	Reference            = UHF
	Print Level          = 1

	IRREP	# MOs	# FZDC	# DOCC	# SOCC	# VIRT	# FZVR
	-----	-----	------	------	------	------	------
	 A1	   38	    2	    3	    0	    33	    0
	 A2	   10	    0	    0	    0	    10	    0
	 B1	   22	    0	    1	    1	    20	    0
	 B2	   22	    0	    1	    0	    21	    0
	Transforming integrals...
	IWL integrals will be deleted.
	(OO|OO)...
	Presorting SO-basis two-electron integrals.
	Sorting File: SO Ints (nn|nn) nbuckets = 1
	Transforming the one-electron integrals and constructing Fock matrices
	Starting AA/AB first half-transformation.
	Sorting AA/AB half-transformed integrals.
	Starting BB first half-transformation.
	Sorting BB half-transformed integrals.
	First half integral transformation complete.
	Starting AA second half-transformation.
	Starting AB second half-transformation.
	Starting BB second half-transformation.
	Two-electron integral transformation complete.
	(OO|OV)...
	Starting AA second half-transformation.
	Starting AB second half-transformation.
	Starting BB second half-transformation.
	Two-electron integral transformation complete.
	(OO|VV)...
	Starting AA second half-transformation.
	Starting AB second half-transformation.
	Starting BB second half-transformation.
	Two-electron integral transformation complete.
	(OV|OO)...
	Starting AA/AB first half-transformation.
	Sorting AA/AB half-transformed integrals.
	Starting BB first half-transformation.
	Sorting BB half-transformed integrals.
	First half integral transformation complete.
	Starting AA second half-transformation.
	Starting AB second half-transformation.
	Starting BB second half-transformation.
	Two-electron integral transformation complete.
	(OV|OV)...
	Starting AA second half-transformation.
	Starting AB second half-transformation.
	Starting BB second half-transformation.
	Two-electron integral transformation complete.
	(OV|VV)...
	Starting AA second half-transformation.
	Starting AB second half-transformation.
	Starting BB second half-transformation.
	Two-electron integral transformation complete.
	(VV|OO)...
	Starting AA/AB first half-transformation.
	Sorting AA/AB half-transformed integrals.
	Starting BB first half-transformation.
	Sorting BB half-transformed integrals.
	First half integral transformation complete.
	Starting AA second half-transformation.
	Starting AB second half-transformation.
	Starting BB second half-transformation.
	Two-electron integral transformation complete.
	(VV|OV)...
	Starting AA second half-transformation.
	Starting AB second half-transformation.
	Starting BB second half-transformation.
	Two-electron integral transformation complete.
	(VV|VV)...
	Starting AA second half-transformation.
	Starting AB second half-transformation.
	Starting BB second half-transformation.
	Two-electron integral transformation complete.
	Frozen core energy     =   -115.70600036041689

	Size of irrep 0 of <AB|CD> integrals:      0.947 (MW) /      7.574 (MB)
	Size of irrep 1 of <AB|CD> integrals:      0.562 (MW) /      4.500 (MB)
	Size of irrep 2 of <AB|CD> integrals:      0.757 (MW) /      6.055 (MB)
	Size of irrep 3 of <AB|CD> integrals:      0.797 (MW) /      6.380 (MB)
	Total:                                     3.064 (MW) /     24.509 (MB)

	Size of irrep 0 of <ab|cd> integrals:      0.986 (MW) /      7.888 (MB)
	Size of irrep 1 of <ab|cd> integrals:      0.594 (MW) /      4.756 (MB)
	Size of irrep 2 of <ab|cd> integrals:      0.815 (MW) /      6.523 (MB)
	Size of irrep 3 of <ab|cd> integrals:      0.815 (MW) /      6.523 (MB)
	Total:                                     3.211 (MW) /     25.690 (MB)

	Size of irrep 0 of <Ab|Cd> integrals:      4.202 (MW) /     33.620 (MB)
	Size of irrep 1 of <Ab|Cd> integrals:      2.313 (MW) /     18.508 (MB)
	Size of irrep 2 of <Ab|Cd> integrals:      3.144 (MW) /     25.148 (MB)
	Size of irrep 3 of <Ab|Cd> integrals:      3.226 (MW) /     25.805 (MB)
	Total:                                    12.885 (MW) /    103.081 (MB)

	Size of irrep 0 of <IA|BC> integrals:      0.325 (MW) /      2.598 (MB)
	Size of irrep 1 of <IA|BC> integrals:      0.138 (MW) /      1.104 (MB)
	Size of irrep 2 of <IA|BC> integrals:      0.237 (MW) /      1.893 (MB)
	Size of irrep 3 of <IA|BC> integrals:      0.207 (MW) /      1.657 (MB)
	Total:                                     0.907 (MW) /      7.253 (MB)

	Size of irrep 0 of <ia|bc> integrals:      0.292 (MW) /      2.336 (MB)
	Size of irrep 1 of <ia|bc> integrals:      0.111 (MW) /      0.888 (MB)
	Size of irrep 2 of <ia|bc> integrals:      0.191 (MW) /      1.531 (MB)
	Size of irrep 3 of <ia|bc> integrals:      0.191 (MW) /      1.531 (MB)
	Total:                                     0.786 (MW) /      6.287 (MB)

	Size of irrep 0 of <Ia|Bc> integrals:      0.332 (MW) /      2.657 (MB)
	Size of irrep 1 of <Ia|Bc> integrals:      0.141 (MW) /      1.132 (MB)
	Size of irrep 2 of <Ia|Bc> integrals:      0.246 (MW) /      1.972 (MB)
	Size of irrep 3 of <Ia|Bc> integrals:      0.208 (MW) /      1.667 (MB)
	Total:                                     0.928 (MW) /      7.427 (MB)

	Size of irrep 0 of <iA|bC> integrals:      0.287 (MW) /      2.296 (MB)
	Size of irrep 1 of <iA|bC> integrals:      0.108 (MW) /      0.864 (MB)
	Size of irrep 2 of <iA|bC> integrals:      0.183 (MW) /      1.461 (MB)
	Size of irrep 3 of <iA|bC> integrals:      0.190 (MW) /      1.523 (MB)
	Total:                                     0.768 (MW) /      6.144 (MB)

	Size of irrep 0 of tIjAb amplitudes:       0.025 (MW) /      0.197 (MB)
	Size of irrep 1 of tIjAb amplitudes:       0.005 (MW) /      0.037 (MB)
	Size of irrep 2 of tIjAb amplitudes:       0.016 (MW) /      0.128 (MB)
	Size of irrep 3 of tIjAb amplitudes:       0.011 (MW) /      0.086 (MB)
	Total:                                     0.056 (MW) /      0.447 (MB)

	Nuclear Rep. energy          =     25.55774539005286
	SCF energy                   =   -129.29708011921488
	One-electron energy          =    -68.76633023200692
	Two-electron (AA) energy     =      7.34347089816010
	Two-electron (BB) energy     =      4.97759640010263
	Two-electron (AB) energy     =     17.29643778489340
	Two-electron energy          =     29.61750508315614
	Reference energy             =   -129.29708011921480

*** tstop() called on cqc05 at Thu Aug 20 20:03:39 2020
Module time:
	user time   =       1.34 seconds =       0.02 minutes
	system time =       0.72 seconds =       0.01 minutes
	total time  =          2 seconds =       0.03 minutes
Total time:
	user time   =       4.12 seconds =       0.07 minutes
	system time =       0.89 seconds =       0.01 minutes
	total time  =          4 seconds =       0.07 minutes

*** tstart() called on cqc05
*** at Thu Aug 20 20:03:39 2020

            **************************
            *                        *
            *        CCENERGY        *
            *                        *
            **************************

    Nuclear Rep. energy (wfn)     =   25.557745390052858
    SCF energy          (wfn)     = -129.297080119214883
    Reference energy    (file100) = -129.297080119214797

    Input parameters:
    -----------------
    Wave function   =     CCSD
    Reference wfn   =     UHF
    Brueckner       =     No
    Memory (Mbytes) =     250000.0
    Maxiter         =     50
    R_Convergence   =     1.0e-07
    E_Convergence   =     1.0e-06
    Restart         =     Yes
    DIIS            =     Yes
    AO Basis        =     NONE
    ABCD            =     NEW
    Cache Level     =     2
    Cache Type      =     LRU
    Print Level     =     1
    Num. of threads =     4
    # Amps to Print =     10
    Print MP2 Amps? =     No
    Analyze T2 Amps =     No
    Print Pair Ener =     No
    Local CC        =     No
    SCS-MP2         =     False
    SCSN-MP2        =     False
    SCS-CCSD        =     False

MP2 correlation energy -0.4010491091489197
                Solving CC Amplitude Equations
                ------------------------------
  Iter             Energy              RMS        T1Diag      D1Diag    New D1Diag    D2Diag
  ----     ---------------------    ---------   ----------  ----------  ----------   --------
     0        -0.401049109149438    0.000e+00    0.000001    0.000000    0.000000    0.000000
     1        -0.388214643944914    1.012e-01    0.025207    0.000000    0.000000    0.000000
     2        -0.403892272760710    3.728e-02    0.028038    0.000000    0.000000    0.000000
     3        -0.409072441420433    2.607e-02    0.039732    0.000000    0.000000    0.000000
     4        -0.409103680357687    1.159e-02    0.045245    0.000000    0.000000    0.000000
     5        -0.409297100660775    5.791e-03    0.049246    0.000000    0.000000    0.000000
     6        -0.409351220445453    1.644e-03    0.049821    0.000000    0.000000    0.000000
     7        -0.409364180923316    4.838e-04    0.049875    0.000000    0.000000    0.000000
     8        -0.409366594037468    1.860e-04    0.049876    0.000000    0.000000    0.000000
     9        -0.409363621851653    8.174e-05    0.049875    0.000000    0.000000    0.000000
    10        -0.409365206475221    3.984e-05    0.049871    0.000000    0.000000    0.000000
    11        -0.409365326917446    1.555e-05    0.049873    0.000000    0.000000    0.000000
    12        -0.409366109123004    5.564e-06    0.049873    0.000000    0.000000    0.000000
    13        -0.409366212778917    1.876e-06    0.049873    0.000000    0.000000    0.000000
    14        -0.409366199106015    5.181e-07    0.049873    0.000000    0.000000    0.000000
    15        -0.409366201390111    2.419e-07    0.049873    0.000000    0.000000    0.000000
    16        -0.409366196229845    9.040e-08    0.049873    0.000000    0.000000    0.000000
    16        -0.409366196229845    9.040e-08    0.049873    0.000000    0.000000    0.000000

    Iterations converged.

    CCSD corr. energy   =   -0.409366196229845
    PPL corr. energy    =    0.095817317701281
    OS PPL corr. energy =    0.078533127561967
    SS PPL corr. energy =    0.017284190139260
    Largest TIA Amplitudes:
              5  63         0.0601040082
              5  65         0.0282050455
              5  69         0.0227224937
              5  66         0.0160543619
              4  43         0.0140648831
              4  44        -0.0132555424
              3  43        -0.0116776214
              5  67         0.0113657628
              3  46        -0.0089354333
              4  47        -0.0088983698

    Largest Tia Amplitudes:
              4  64        -0.0805424431
              4  65        -0.0611305226
              3  44        -0.0467360039
              3  45        -0.0438346557
              4  66        -0.0413822293
              3  43        -0.0409100487
              4  68         0.0205720876
              4  69        -0.0201668268
              3  48        -0.0175123553
              3  47         0.0170874693

    Largest TIJAB Amplitudes:
      5   2  63   9        -0.0247738917
      5   2  63   5        -0.0195876897
      5   2  63   6         0.0194563117
      5   2  63  10         0.0169489946
      5   4  63  48        -0.0150489132
      5   4  63  45        -0.0104901296
      5   2  65   9        -0.0103236983
      5   2  64   9        -0.0101757734
      5   3  35  12        -0.0100915256
      5   4  67  47        -0.0095669619

    Largest Tijab Amplitudes:
      4   3  64  45        -0.0307398714
      4   3  64  43        -0.0277388643
      4   3  64  44        -0.0201022795
      4   3  66  45        -0.0193617765

      * MP2 total energy                      = -129.698129228363712
      * CCSD total energy                     = -129.706446315444651
*** Psi4 exiting successfully. Buy a developer a beer!
