                               Psi4 1.2a1.dev938

  ==> Input File <==

--------------------------------------------------------------------------
# Any line starting with the # character is a comment line
memory 250000 mb
molecule molecule{
0 2
O          0.0000000000        0.0000000000       -0.5412437487
N          0.0000000000        0.0000000000        0.6182452136
}

set {
  reference uhf
  basis aug-cc-pv(d+d)z
  scf_type OUT_OF_CORE
  freeze_core true
}

energy('ccsd')
--------------------------------------------------------------------------

    Molecular point group: c2v

    Geometry (in Angstrom), charge = 0, multiplicity = 2:

       Center              X                  Y                   Z               Mass
    ------------   -----------------  -----------------  -----------------  -----------------
           O          0.000000000000     0.000000000000    -0.541249946793    15.994914619560
           N          0.000000000000     0.000000000000     0.618239015507    14.003074004780

  Charge       = 0
  Multiplicity = 2
  Basis Set: AUG-CC-PV(D+D)Z
    Blend: AUG-CC-PV(D+D)Z

    Orbital Energies (a.u.)
    -----------------------

    Alpha Occupied:

       1A1   -20.711213     2A1   -15.749159     3A1    -1.613098
       4A1    -0.975754     1B1    -0.786848     5A1    -0.700140
       1B2    -0.642105     2B1    -0.430772

    Alpha Virtual:

       2B2     0.069631     6A1     0.099900     7A1     0.141182
       3B1     0.150036     3B2     0.157075     8A1     0.222854
       4B1     0.237885     4B2     0.255585     9A1     0.390559
      10A1     0.610372     1A2     0.625640    11A1     0.626074
       5B1     0.807997     5B2     0.819624    12A1     0.869900
      13A1     0.917918     6B1     0.998637     6B2     1.027337
       2A2     1.081792    14A1     1.082096     7B1     1.197675
       7B2     1.233268    15A1     1.273465    16A1     1.536712
       8B1     1.665878     8B2     1.697859    17A1     2.088983
       3A2     2.352300    18A1     2.352721     9B1     2.454993
       9B2     2.463942    19A1     2.793259    20A1     3.326638
       4A2     3.528822    21A1     3.529235    10B1     3.812258
      10B2     3.824727    22A1     3.994179

    Beta Occupied:

       1A1   -20.706131     2A1   -15.712693     3A1    -1.580667
       4A1    -0.892008     1B2    -0.665641     5A1    -0.652544
       1B1    -0.614357

    Beta Virtual:

       2B2     0.084970     6A1     0.100710     2B1     0.111186
       7A1     0.145752     3B2     0.177823     3B1     0.194730
       8A1     0.224497     4B2     0.251721     4B1     0.268365
       9A1     0.392116    10A1     0.637865     1A2     0.645256
      11A1     0.647328     5B2     0.822214     5B1     0.839376
      12A1     0.884094    13A1     0.929986     6B2     1.053175
       6B1     1.079904     2A2     1.085962    14A1     1.086461
       7B2     1.234992     7B1     1.263539    15A1     1.283187
      16A1     1.551018     8B2     1.679070     8B1     1.709086
      17A1     2.106454    18A1     2.436638     3A2     2.436996
       9B2     2.482680     9B1     2.514415    19A1     2.821520
      20A1     3.336840    21A1     3.538826     4A2     3.539172
      10B2     3.811548    10B1     3.848281    22A1     4.002014

    Final Occupation by Irrep:
             A1    A2    B1    B2
    DOCC [     5,    0,    1,    1 ]
    SOCC [     0,    0,    1,    0 ]

  Energy converged.

  @UHF Final Energy:  -129.26883622499821

   => Energetics <=

    Nuclear Repulsion Energy =             25.5577453900528582
    One-Electron Energy =                -227.2200324039836801
    Two-Electron Energy =                  72.3934507889326113
    PCM Polarization Energy =               0.0000000000000000
    Total Energy =                       -129.2688362249982106

    Alert: EFP and PCM quantities not currently incorporated into SCF psivars.
  UHF NO Occupations:
  HONO-2 :    1 B1 1.9965452
  HONO-1 :    1 B2 1.9723396
  HONO-0 :    2 B1 1.0000000
  LUNO+0 :    2 B2 0.0276604
  LUNO+1 :    3 B1 0.0034548
  LUNO+2 :    6 A1 0.0021999
  LUNO+3 :    7 A1 0.0003027

Properties will be evaluated at   0.000000,   0.000000,   0.000000 Bohr

Properties computed using the SCF density matrix

  Nuclear Dipole Moment: (a.u.)
     X:     0.0000      Y:     0.0000      Z:    -0.0044

  Electronic Dipole Moment: (a.u.)
     X:     0.0000      Y:     0.0000      Z:     0.1082

  Dipole Moment: (a.u.)
     X:     0.0000      Y:     0.0000      Z:     0.1038     Total:     0.1038

  Dipole Moment: (Debye)
     X:     0.0000      Y:     0.0000      Z:     0.2638     Total:     0.2638

*** tstop() called on cqc05 at Thu Aug 20 19:54:42 2020
Module time:
	user time   =       0.68 seconds =       0.01 minutes
	system time =       0.02 seconds =       0.00 minutes
	total time  =          1 seconds =       0.02 minutes
Total time:
	user time   =       0.68 seconds =       0.01 minutes
	system time =       0.02 seconds =       0.00 minutes
	total time  =          1 seconds =       0.02 minutes

*** tstart() called on cqc05
*** at Thu Aug 20 19:54:42 2020

	Wfn Parameters:
	--------------------
	Wavefunction         = CCSD
	Number of irreps     = 4
	Number of MOs        = 46
	Number of active MOs = 44
	AO-Basis             = NONE
	Semicanonical        = false
	Reference            = UHF
	Print Level          = 1

	IRREP	# MOs	# FZDC	# DOCC	# SOCC	# VIRT	# FZVR
	-----	-----	------	------	------	------	------
	 A1	   22	    2	    3	    0	    17	    0
	 A2	   4	    0	    0	    0	    4	    0
	 B1	   10	    0	    1	    1	    8	    0
	 B2	   10	    0	    1	    0	    9	    0
	Transforming integrals...
	IWL integrals will be deleted.
	(OO|OO)...
	Presorting SO-basis two-electron integrals.
	Sorting File: SO Ints (nn|nn) nbuckets = 1
	Transforming the one-electron integrals and constructing Fock matrices
	Starting AA/AB first half-transformation.
	Sorting AA/AB half-transformed integrals.
	Starting BB first half-transformation.
	Sorting BB half-transformed integrals.
	First half integral transformation complete.
	Starting AA second half-transformation.
	Starting AB second half-transformation.
	Starting BB second half-transformation.
	Two-electron integral transformation complete.
	(OO|OV)...
	Starting AA second half-transformation.
	Starting AB second half-transformation.
	Starting BB second half-transformation.
	Two-electron integral transformation complete.
	(OO|VV)...
	Starting AA second half-transformation.
	Starting AB second half-transformation.
	Starting BB second half-transformation.
	Two-electron integral transformation complete.
	(OV|OO)...
	Starting AA/AB first half-transformation.
	Sorting AA/AB half-transformed integrals.
	Starting BB first half-transformation.
	Sorting BB half-transformed integrals.
	First half integral transformation complete.
	Starting AA second half-transformation.
	Starting AB second half-transformation.
	Starting BB second half-transformation.
	Two-electron integral transformation complete.
	(OV|OV)...
	Starting AA second half-transformation.
	Starting AB second half-transformation.
	Starting BB second half-transformation.
	Two-electron integral transformation complete.
	(OV|VV)...
	Starting AA second half-transformation.
	Starting AB second half-transformation.
	Starting BB second half-transformation.
	Two-electron integral transformation complete.
	(VV|OO)...
	Starting AA/AB first half-transformation.
	Sorting AA/AB half-transformed integrals.
	Starting BB first half-transformation.
	Sorting BB half-transformed integrals.
	First half integral transformation complete.
	Starting AA second half-transformation.
	Starting AB second half-transformation.
	Starting BB second half-transformation.
	Two-electron integral transformation complete.
	(VV|OV)...
	Starting AA second half-transformation.
	Starting AB second half-transformation.
	Starting BB second half-transformation.
	Two-electron integral transformation complete.
	(VV|VV)...
	Starting AA second half-transformation.
	Starting AB second half-transformation.
	Starting BB second half-transformation.
	Two-electron integral transformation complete.
	Frozen core energy     =   -115.70488905084750

	Size of irrep 0 of <AB|CD> integrals:      0.042 (MW) /      0.339 (MB)
	Size of irrep 1 of <AB|CD> integrals:      0.020 (MW) /      0.157 (MB)
	Size of irrep 2 of <AB|CD> integrals:      0.030 (MW) /      0.237 (MB)
	Size of irrep 3 of <AB|CD> integrals:      0.034 (MW) /      0.274 (MB)
	Total:                                     0.126 (MW) /      1.007 (MB)

	Size of irrep 0 of <ab|cd> integrals:      0.046 (MW) /      0.366 (MB)
	Size of irrep 1 of <ab|cd> integrals:      0.022 (MW) /      0.178 (MB)
	Size of irrep 2 of <ab|cd> integrals:      0.036 (MW) /      0.286 (MB)
	Size of irrep 3 of <ab|cd> integrals:      0.036 (MW) /      0.286 (MB)
	Total:                                     0.139 (MW) /      1.116 (MB)

	Size of irrep 0 of <Ab|Cd> integrals:      0.210 (MW) /      1.678 (MB)
	Size of irrep 1 of <Ab|Cd> integrals:      0.084 (MW) /      0.668 (MB)
	Size of irrep 2 of <Ab|Cd> integrals:      0.130 (MW) /      1.043 (MB)
	Size of irrep 3 of <Ab|Cd> integrals:      0.140 (MW) /      1.119 (MB)
	Total:                                     0.563 (MW) /      4.508 (MB)

	Size of irrep 0 of <IA|BC> integrals:      0.034 (MW) /      0.274 (MB)
	Size of irrep 1 of <IA|BC> integrals:      0.011 (MW) /      0.085 (MB)
	Size of irrep 2 of <IA|BC> integrals:      0.021 (MW) /      0.171 (MB)
	Size of irrep 3 of <IA|BC> integrals:      0.019 (MW) /      0.154 (MB)
	Total:                                     0.085 (MW) /      0.683 (MB)

	Size of irrep 0 of <ia|bc> integrals:      0.032 (MW) /      0.258 (MB)
	Size of irrep 1 of <ia|bc> integrals:      0.009 (MW) /      0.072 (MB)
	Size of irrep 2 of <ia|bc> integrals:      0.018 (MW) /      0.145 (MB)
	Size of irrep 3 of <ia|bc> integrals:      0.018 (MW) /      0.145 (MB)
	Total:                                     0.077 (MW) /      0.620 (MB)

	Size of irrep 0 of <Ia|Bc> integrals:      0.036 (MW) /      0.286 (MB)
	Size of irrep 1 of <Ia|Bc> integrals:      0.011 (MW) /      0.090 (MB)
	Size of irrep 2 of <Ia|Bc> integrals:      0.023 (MW) /      0.188 (MB)
	Size of irrep 3 of <Ia|Bc> integrals:      0.019 (MW) /      0.156 (MB)
	Total:                                     0.090 (MW) /      0.719 (MB)

	Size of irrep 0 of <iA|bC> integrals:      0.031 (MW) /      0.249 (MB)
	Size of irrep 1 of <iA|bC> integrals:      0.008 (MW) /      0.067 (MB)
	Size of irrep 2 of <iA|bC> integrals:      0.016 (MW) /      0.130 (MB)
	Size of irrep 3 of <iA|bC> integrals:      0.018 (MW) /      0.144 (MB)
	Total:                                     0.074 (MW) /      0.590 (MB)

	Size of irrep 0 of tIjAb amplitudes:       0.005 (MW) /      0.044 (MB)
	Size of irrep 1 of tIjAb amplitudes:       0.001 (MW) /      0.007 (MB)
	Size of irrep 2 of tIjAb amplitudes:       0.003 (MW) /      0.026 (MB)
	Size of irrep 3 of tIjAb amplitudes:       0.002 (MW) /      0.018 (MB)
	Total:                                     0.012 (MW) /      0.095 (MB)

	Nuclear Rep. energy          =     25.55774539005286
	SCF energy                   =   -129.26883622499821
	One-electron energy          =    -68.68945015341306
	Two-electron (AA) energy     =      7.33363918637742
	Two-electron (BB) energy     =      4.96609535669556
	Two-electron (AB) energy     =     17.26802304613662
	Two-electron energy          =     29.56775758920960
	Reference energy             =   -129.26883622499810

*** tstop() called on cqc05 at Thu Aug 20 19:54:42 2020
Module time:
	user time   =       0.14 seconds =       0.00 minutes
	system time =       0.09 seconds =       0.00 minutes
	total time  =          0 seconds =       0.00 minutes
Total time:
	user time   =       0.82 seconds =       0.01 minutes
	system time =       0.11 seconds =       0.00 minutes
	total time  =          1 seconds =       0.02 minutes

*** tstart() called on cqc05
*** at Thu Aug 20 19:54:42 2020

            **************************
            *                        *
            *        CCENERGY        *
            *                        *
            **************************

    Nuclear Rep. energy (wfn)     =   25.557745390052858
    SCF energy          (wfn)     = -129.268836224998211
    Reference energy    (file100) = -129.268836224998097

    Input parameters:
    -----------------
    Wave function   =     CCSD
    Reference wfn   =     UHF
    Brueckner       =     No
    Memory (Mbytes) =     250000.0
    Maxiter         =     50
    R_Convergence   =     1.0e-07
    E_Convergence   =     1.0e-06
    Restart         =     Yes
    DIIS            =     Yes
    AO Basis        =     NONE
    ABCD            =     NEW
    Cache Level     =     2
    Cache Type      =     LRU
    Print Level     =     1
    Num. of threads =     4
    # Amps to Print =     10
    Print MP2 Amps? =     No
    Analyze T2 Amps =     No
    Print Pair Ener =     No
    Local CC        =     No
    SCS-MP2         =     False
    SCSN-MP2        =     False
    SCS-CCSD        =     False

MP2 correlation energy -0.3305709480295259
                Solving CC Amplitude Equations
                ------------------------------
  Iter             Energy              RMS        T1Diag      D1Diag    New D1Diag    D2Diag
  ----     ---------------------    ---------   ----------  ----------  ----------   --------
     0        -0.330570948029624    0.000e+00    0.000000    0.000000    0.000000    0.000000
     1        -0.323448135416072    9.897e-02    0.024833    0.000000    0.000000    0.000000
     2        -0.337301039838444    3.622e-02    0.028367    0.000000    0.000000    0.000000
     3        -0.342379394964133    2.515e-02    0.039593    0.000000    0.000000    0.000000
     4        -0.342514390322492    1.076e-02    0.044798    0.000000    0.000000    0.000000
     5        -0.342675384161444    5.089e-03    0.048031    0.000000    0.000000    0.000000
     6        -0.342704100753673    1.517e-03    0.048510    0.000000    0.000000    0.000000
     7        -0.342724316764811    4.387e-04    0.048583    0.000000    0.000000    0.000000
     8        -0.342722921330402    1.799e-04    0.048575    0.000000    0.000000    0.000000
     9        -0.342721424981514    9.112e-05    0.048573    0.000000    0.000000    0.000000
    10        -0.342722889023642    4.563e-05    0.048569    0.000000    0.000000    0.000000
    11        -0.342723091032178    1.623e-05    0.048570    0.000000    0.000000    0.000000
    12        -0.342723838259410    4.868e-06    0.048570    0.000000    0.000000    0.000000
    13        -0.342723900084491    1.650e-06    0.048571    0.000000    0.000000    0.000000
    14        -0.342723907804196    5.004e-07    0.048571    0.000000    0.000000    0.000000
    15        -0.342723913380853    2.429e-07    0.048571    0.000000    0.000000    0.000000
    16        -0.342723918487167    1.036e-07    0.048571    0.000000    0.000000    0.000000
    17        -0.342723920438930    4.694e-08    0.048571    0.000000    0.000000    0.000000
    17        -0.342723920438930    4.694e-08    0.048571    0.000000    0.000000    0.000000

    Iterations converged.

    CCSD corr. energy   =   -0.342723920438930
    PPL corr. energy    =    0.077478937295729
    OS PPL corr. energy =    0.062976586161925
    SS PPL corr. energy =    0.014502351133825
    Largest TIA Amplitudes:
              5  29         0.0545850500
              5  31         0.0259571527
              5  35         0.0204658768
              4  21         0.0194528112
              4  22        -0.0189739574
              3  21        -0.0156756737
              5  33         0.0147769654
              5  32         0.0127102544
              3  24        -0.0112888452
              2   0         0.0092935101

    Largest Tia Amplitudes:
              4  30        -0.0870461738
              4  31        -0.0533254493
              3  21        -0.0512793329
              3  22        -0.0439759330
              4  32        -0.0357002774
              3  23        -0.0351365409
              4  34         0.0185174031
              3  25         0.0160854768
              1   4        -0.0140735762
              4  35        -0.0139017373

    Largest TIJAB Amplitudes:
      5   2  29   4        -0.0337147511
      5   2  29   9         0.0190770701
      5   2  31   4        -0.0145728592
      4   2  23   4        -0.0143372333
      5   4  29  24        -0.0140821437
      5   4  29  26        -0.0138781681
      5   4  29  23        -0.0136650290
      5   2  29   6        -0.0125508602
      5   1  29   3        -0.0115461642
      5   3  17   5         0.0114337837

    Largest Tijab Amplitudes:
      4   3  30  21        -0.0358453931
      4   3  30  23        -0.0299465302
      4   2  30   4         0.0260105374
      4   3  30  22        -0.0213538288
      4   3  32  21        -0.0198168559
      3   2  21   4         0.0191233719
      4   3  32  23        -0.0172998347
      4   2  30   9        -0.0163422164
      4   3  31  21        -0.0159418951
      3   2  23   4         0.0156255366

    Largest TIjAb Amplitudes:
      5   4  29  30        -0.1276428185
      5   3  29  21        -0.0693715036
      5   4  29  32        -0.0682301904
      5   4  29  31        -0.0656748029
      5   3  29  23        -0.0573368747
      5   4  31  30        -0.0556797010
      5   3  29  22        -0.0461248778
      2   2  29  30         0.0409799618
      1   1  29  30        -0.0394759070
      5   4  31  32        -0.0321441604

    SCF energy       (wfn)                    = -129.268836224998211
    Reference energy (file100)                = -129.268836224998097

    Opposite-spin MP2 correlation energy      =   -0.240091329961136
    Same-spin MP2 correlation energy          =   -0.090479618067536
    MP2 correlation energy                    =   -0.330570948029526
      * MP2 total energy                      = -129.599407173027629

    Opposite-spin CCSD correlation energy     =   -0.265599715192833
    Same-spin CCSD correlation energy         =   -0.077124308991928
    CCSD correlation energy                   =   -0.342723920438930
      * CCSD total energy                     = -129.611560145437039
*** Psi4 exiting successfully. Buy a developer a beer!
