                               Psi4 1.2a1.dev939

  ==> Input File <==

--------------------------------------------------------------------------
# Any line starting with the # character is a comment line

memory 32000 mb

molecule molecule {
0 1
C          0.0000000000        0.0000000000       -0.0000000000
H          0.8868624468        0.0000000000        0.6271064501
H         -0.8868624468        0.0000000000        0.6271064501
H          0.0000000000       -0.8868624468       -0.6271064501
H          0.0000000000        0.8868624468       -0.6271064501
}

set {
  reference rhf
  basis aug-cc-pv(T+d)z
  scf_type OUT_OF_CORE
  freeze_core true
}

energy('ccsd')
--------------------------------------------------------------------------

    Molecular point group: c2v

    Geometry (in Angstrom), charge = 0, multiplicity = 1:

       Center              X                  Y                   Z               Mass
    ------------   -----------------  -----------------  -----------------  -----------------
           C         -0.000000000000    -0.000000000000    -0.000000000000    12.000000000000
           H          0.886862446800     0.000000000000     0.627106450100     1.007825032070
           H         -0.886862446800    -0.000000000000     0.627106450100     1.007825032070
           H          0.000000000000    -0.886862446800    -0.627106450100     1.007825032070
           H         -0.000000000000     0.886862446800    -0.627106450100     1.007825032070

  Charge       = 0
  Multiplicity = 1
  Basis Set: AUG-CC-PV(T+D)Z
    Blend: AUG-CC-PV(T+D)Z

    Orbital Energies (a.u.)
    -----------------------

    Doubly Occupied:

       1A1   -11.205397     2A1    -0.943936     1B2    -0.545482
       1B1    -0.545482     3A1    -0.545482

  @RHF Final Energy:   -40.21365779116843

   => Energetics <=

    Nuclear Repulsion Energy =             13.4826373869332876
    One-Electron Energy =                 -79.8210304150872076
    Two-Electron Energy =                  26.1247352369854866
    Total Energy =                        -40.2136577911684299
      * MP2 total energy                      =  -40.414459147877913
      * CCSD total energy                     =  -40.434361286549759
*** Psi4 exiting successfully. Buy a developer a beer!
