                               Psi4 1.2a1.dev939

  ==> Input File <==

--------------------------------------------------------------------------
# Any line starting with the # character is a comment line

memory 32000 mb

molecule molecule {
0 1
C          0.0000000000        0.0000000000       -0.0000000000
H          0.8868624468        0.0000000000        0.6271064501
H         -0.8868624468        0.0000000000        0.6271064501
H          0.0000000000       -0.8868624468       -0.6271064501
H          0.0000000000        0.8868624468       -0.6271064501
}

set {
  reference rhf

  basis aug-cc-pv(5+d)z
  scf_type OUT_OF_CORE
  freeze_core true
}

energy('ccsd')
--------------------------------------------------------------------------

    Molecular point group: c2v

    Geometry (in Angstrom), charge = 0, multiplicity = 1:

       Center              X                  Y                   Z               Mass
    ------------   -----------------  -----------------  -----------------  -----------------
           C         -0.000000000000    -0.000000000000    -0.000000000000    12.000000000000
           H          0.886862446800     0.000000000000     0.627106450100     1.007825032070
           H         -0.886862446800    -0.000000000000     0.627106450100     1.007825032070
           H          0.000000000000    -0.886862446800    -0.627106450100     1.007825032070
           H         -0.000000000000     0.886862446800    -0.627106450100     1.007825032070

  Charge       = 0
  Multiplicity = 1
  Basis Set: AUG-CC-PV(5+D)Z
    Blend: AUG-CC-PV(5+D)Z

    Orbital Energies (a.u.)
    -----------------------

    Doubly Occupied:

       1A1   -11.204247     2A1    -0.943796     1B2    -0.545713
       1B1    -0.545713     3A1    -0.545713

  @RHF Final Energy:   -40.21699590087084

   => Energetics <=

    Nuclear Repulsion Energy =             13.4826373869332876
    One-Electron Energy =                 -79.8289047063942689
    Two-Electron Energy =                  26.1292714185901325
    Total Energy =                        -40.2169959008708418
      * MP2 total energy                      =  -40.431892603865549
      * CCSD total energy                     =  -40.447765266301914
*** Psi4 exiting successfully. Buy a developer a beer!
