                               Psi4 1.2a1.dev938

  ==> Input File <==

--------------------------------------------------------------------------
# Any line starting with the # character is a comment line
memory 250000 mb
molecule molecule{
1 2
P          0.0000000000        0.0000000000        0.9966955025
P          0.0000000000        0.0000000000       -0.9966955025
}

set {
  reference uhf
  basis aug-cc-pv(t+d)z
  scf_type OUT_OF_CORE
  freeze_core true
}

energy('ccsd')
--------------------------------------------------------------------------

    Molecular point group: d2h

    Geometry (in Angstrom), charge = 1, multiplicity = 2:

       Center              X                  Y                   Z               Mass
    ------------   -----------------  -----------------  -----------------  -----------------
           P          0.000000000000     0.000000000000     0.996695502500    30.973761629000
           P          0.000000000000     0.000000000000    -0.996695502500    30.973761629000

  Charge       = 1
  Multiplicity = 2
  Basis Set: AUG-CC-PV(T+D)Z
    Blend: AUG-CC-PV(T+D)Z

    Orbital Energies (a.u.)
    -----------------------

    Alpha Occupied:

       1Ag   -80.283147     1B1u  -80.283141     2Ag    -7.819316
       2B1u   -7.818818     1B2u   -5.715653     1B3g   -5.715504
       3Ag    -5.707687     1B3u   -5.707525     1B2g   -5.707383
       3B1u   -5.706257     4Ag    -1.185977     4B1u   -0.893958
       2B2u   -0.669795     5Ag    -0.668602     2B3u   -0.628564

    Alpha Virtual:

       2B3g   -0.261833     2B2g   -0.234050     6Ag    -0.093240
       5B1u   -0.091045     3B2u   -0.067787     3B3u   -0.060786
       7Ag    -0.046862     6B1u   -0.026811     1B1g   -0.026449
       3B3g   -0.025399     8Ag    -0.025135     3B2g   -0.021210
       4B2u    0.038303     7B1u    0.045682     4B3u    0.052759
       9Ag     0.087193     1Au     0.087866     8B1u    0.088653
       4B3g    0.150727     4B2g    0.157527     9B1u    0.164416
       5B2u    0.225400     5B3u    0.245846    10Ag     0.278540
       2B1g    0.283630    11Ag     0.298048     6B2u    0.316321
       6B3u    0.332750    12Ag     0.353824     7B2u    0.376168
       7B3u    0.376282    10B1u    0.389245     2Au     0.390002
       5B3g    0.395937    11B1u    0.401555     5B2g    0.412441
      13Ag     0.422274     6B3g    0.466688     3B1g    0.474874
      14Ag     0.476960     6B2g    0.481361     7B3g    0.515645
       7B2g    0.515723    12B1u    0.572599     8B2u    0.678423
      13B1u    0.691498     8B3u    0.691524     3Au     0.691744
      14B1u    0.777741     8B3g    0.851860     8B2g    0.868755
      15Ag     0.980153    15B1u    1.072408     9B2u    1.298316
       4B1g    1.305046    16Ag     1.305700     9B3u    1.321638
       4Au     1.374455    16B1u    1.374484    17Ag     1.409933
      17B1u    1.494676     5B1g    1.499040    18Ag     1.500959
      10B2u    1.568780    10B3u    1.569035     9B3g    1.586086
       9B2g    1.601515    11B2u    1.605259    11B3u    1.627191
      10B3g    1.649883    10B2g    1.649896    19Ag     1.801077
      18B1u    1.832243     5Au     1.832727    11B3g    1.944192
      11B2g    1.966568    19B1u    1.998589    12B2u    2.017573
      12B3u    2.039346    12B3g    2.360616    12B2g    2.384739
      20Ag     2.495542    20B1u    3.167296    21Ag     3.858973
      21B1u    4.298535    22Ag     5.888130     6B1g    5.888252
      13B2u    5.904184    13B3u    5.915035     6Au     5.923705
      22B1u    5.923755    23Ag     5.997860    13B3g    6.103044
      13B2g    6.114488    23B1u    6.542300

    Beta Occupied:

       1Ag   -80.280219     1B1u  -80.280215     2Ag    -7.815799
       2B1u   -7.815381     3Ag    -5.706699     1B3u   -5.706096
       1B2g   -5.705949     3B1u   -5.705316     1B2u   -5.700146
       1B3g   -5.700013     4Ag    -1.120345     4B1u   -0.865456
       5Ag    -0.664601     2B3u   -0.615488

    Beta Virtual:

       2B2u   -0.299962     2B2g   -0.229629     2B3g   -0.175720
       6Ag    -0.085713     5B1u   -0.084864     3B3u   -0.060091
       3B2u   -0.056263     7Ag    -0.044863     3B2g   -0.020745
       3B3g   -0.018799     6B1u   -0.018439     1B1g   -0.005972
       8Ag    -0.005959     7B1u    0.046962     4B3u    0.053177
       4B2u    0.058004     9Ag     0.093083     1Au     0.093933
       8B1u    0.094008     4B2g    0.158573     4B3g    0.161146
       9B1u    0.170018     5B3u    0.249025     5B2u    0.263099
      10Ag     0.302174     2B1g    0.313665    11Ag     0.315651
       6B3u    0.333681     6B2u    0.337555    12Ag     0.357356
       7B3u    0.386152     7B2u    0.386173    10B1u    0.400906
       2Au     0.409376    11B1u    0.409414     5B3g    0.411201
       5B2g    0.413598    13Ag     0.428178     3B1g    0.481876
      14Ag     0.482218     6B2g    0.482473     6B3g    0.486451
       7B3g    0.520925     7B2g    0.520931    12B1u    0.577392
       8B2u    0.686806     8B3u    0.692364    13B1u    0.697191
       3Au     0.697471    14B1u    0.785090     8B3g    0.869841
       8B2g    0.870740    15Ag     0.989826    15B1u    1.078259
       4B1g    1.317741    16Ag     1.317766     9B2u    1.319801
       9B3u    1.323799    16B1u    1.385268     4Au     1.385328
      17Ag     1.422445    17B1u    1.494611     5B1g    1.515178
      18Ag     1.515184    10B2u    1.586212    10B3u    1.586235
       9B3g    1.593234     9B2g    1.601239    11B2u    1.622037
      11B3u    1.627973    10B3g    1.665613    10B2g    1.665613
      19Ag     1.801409    18B1u    1.844714     5Au     1.844871
      11B3g    1.962919    11B2g    1.968192    19B1u    2.003073
      12B3u    2.042027    12B2u    2.042991    12B3g    2.380731
      12B2g    2.387215    20Ag     2.501273    20B1u    3.168294
      21Ag     3.866356    21B1u    4.306317    22Ag     5.892229
       6B1g    5.892297    13B2u    5.908802    13B3u    5.915301
       6Au     5.927646    22B1u    5.927655    23Ag     5.998495
      13B3g    6.107896    13B2g    6.115035    23B1u    6.544735

    Final Occupation by Irrep:
             Ag   B1g   B2g   B3g    Au   B1u   B2u   B3u
    DOCC [     5,    0,    1,    1,    0,    4,    1,    2 ]
    SOCC [     0,    0,    0,    0,    0,    0,    1,    0 ]

  Energy converged.

  @UHF Final Energy:  -681.15404460300147

   => Energetics <=

    Nuclear Repulsion Energy =             59.7298129840562666
    One-Electron Energy =               -1053.5746653427981983
    Two-Electron Energy =                 312.6908077557405363
    Total Energy =                       -681.1540446030014664

  UHF NO Occupations:
  HONO-2 :    4B1u 1.9982633
  HONO-1 :    5 Ag 1.9977302
  HONO-0 :    2B2u 1.0000000
  LUNO+0 :    6 Ag 0.0022698
  LUNO+1 :    5B1u 0.0017367
  LUNO+2 :    7 Ag 0.0002731
  LUNO+3 :    3B3u 0.0002386

Properties will be evaluated at   0.000000,   0.000000,   0.000000 Bohr

Properties computed using the SCF density matrix

  Nuclear Dipole Moment: (a.u.)
     X:     0.0000      Y:     0.0000      Z:    -0.0000

  Electronic Dipole Moment: (a.u.)
     X:     0.0000      Y:     0.0000      Z:     0.0000

  Dipole Moment: (a.u.)
     X:     0.0000      Y:     0.0000      Z:    -0.0000     Total:     0.0000

  Dipole Moment: (Debye)
     X:     0.0000      Y:     0.0000      Z:    -0.0000     Total:     0.0000

*** tstop() called on cqc05 at Thu Aug 20 20:04:09 2020
Module time:
	user time   =       3.29 seconds =       0.05 minutes
	system time =       0.08 seconds =       0.00 minutes
	total time  =          3 seconds =       0.05 minutes
Total time:
	user time   =       3.29 seconds =       0.05 minutes
	system time =       0.08 seconds =       0.00 minutes
	total time  =          3 seconds =       0.05 minutes

*** tstart() called on cqc05
*** at Thu Aug 20 20:04:09 2020

	Wfn Parameters:
	--------------------
	Wavefunction         = CCSD
	Number of irreps     = 8
	Number of MOs        = 110
	Number of active MOs = 100
	AO-Basis             = NONE
	Semicanonical        = false
	Reference            = UHF
	Print Level          = 1

	IRREP	# MOs	# FZDC	# DOCC	# SOCC	# VIRT	# FZVR
	-----	-----	------	------	------	------	------
	 Ag	   23	    3	    2	    0	    18	    0
	 B1g	   6	    0	    0	    0	    6	    0
	 B2g	   13	    1	    0	    0	    12	    0
	 B3g	   13	    1	    0	    0	    12	    0
	 Au	   6	    0	    0	    0	    6	    0
	 B1u	   23	    3	    1	    0	    19	    0
	 B2u	   13	    1	    0	    1	    11	    0
	 B3u	   13	    1	    1	    0	    11	    0
	Transforming integrals...
	IWL integrals will be deleted.
	(OO|OO)...
	Presorting SO-basis two-electron integrals.
	Sorting File: SO Ints (nn|nn) nbuckets = 1
	Transforming the one-electron integrals and constructing Fock matrices
	Starting AA/AB first half-transformation.
	Sorting AA/AB half-transformed integrals.
	Starting BB first half-transformation.
	Sorting BB half-transformed integrals.
	First half integral transformation complete.
	Starting AA second half-transformation.
	Starting AB second half-transformation.
	Starting BB second half-transformation.
	Two-electron integral transformation complete.
	(OO|OV)...
	Starting AA second half-transformation.
	Starting AB second half-transformation.
	Starting BB second half-transformation.
	Two-electron integral transformation complete.
	(OO|VV)...
	Starting AA second half-transformation.
	Starting AB second half-transformation.
	Starting BB second half-transformation.
	Two-electron integral transformation complete.
	(OV|OO)...
	Starting AA/AB first half-transformation.
	Sorting AA/AB half-transformed integrals.
	Starting BB first half-transformation.
	Sorting BB half-transformed integrals.
	First half integral transformation complete.
	Starting AA second half-transformation.
	Starting AB second half-transformation.
	Starting BB second half-transformation.
	Two-electron integral transformation complete.
	(OV|OV)...
	Starting AA second half-transformation.
	Starting AB second half-transformation.
	Starting BB second half-transformation.
	Two-electron integral transformation complete.
	(OV|VV)...
	Starting AA second half-transformation.
	Starting AB second half-transformation.
	Starting BB second half-transformation.
	Two-electron integral transformation complete.
	(VV|OO)...
	Starting AA/AB first half-transformation.
	Sorting AA/AB half-transformed integrals.
	Starting BB first half-transformation.
	Sorting BB half-transformed integrals.
	First half integral transformation complete.
	Starting AA second half-transformation.
	Starting AB second half-transformation.
	Starting BB second half-transformation.
	Two-electron integral transformation complete.
	(VV|OV)...
	Starting AA second half-transformation.
	Starting AB second half-transformation.
	Starting BB second half-transformation.
	Two-electron integral transformation complete.
	(VV|VV)...
	Starting AA second half-transformation.
	Starting AB second half-transformation.
	Starting BB second half-transformation.
	Two-electron integral transformation complete.
	Frozen core energy     =   -721.81588766873665

	Size of irrep 0 of <AB|CD> integrals:      0.355 (MW) /      2.842 (MB)
	Size of irrep 1 of <AB|CD> integrals:      0.237 (MW) /      1.897 (MB)
	Size of irrep 2 of <AB|CD> integrals:      0.317 (MW) /      2.536 (MB)
	Size of irrep 3 of <AB|CD> integrals:      0.317 (MW) /      2.536 (MB)
	Size of irrep 4 of <AB|CD> integrals:      0.236 (MW) /      1.890 (MB)
	Size of irrep 5 of <AB|CD> integrals:      0.412 (MW) /      3.297 (MB)
	Size of irrep 6 of <AB|CD> integrals:      0.318 (MW) /      2.545 (MB)
	Size of irrep 7 of <AB|CD> integrals:      0.318 (MW) /      2.545 (MB)
	Total:                                     2.511 (MW) /     20.087 (MB)

	Size of irrep 0 of <ab|cd> integrals:      0.368 (MW) /      2.948 (MB)
	Size of irrep 1 of <ab|cd> integrals:      0.248 (MW) /      1.984 (MB)
	Size of irrep 2 of <ab|cd> integrals:      0.324 (MW) /      2.590 (MB)
	Size of irrep 3 of <ab|cd> integrals:      0.339 (MW) /      2.710 (MB)
	Size of irrep 4 of <ab|cd> integrals:      0.248 (MW) /      1.984 (MB)
	Size of irrep 5 of <ab|cd> integrals:      0.428 (MW) /      3.422 (MB)
	Size of irrep 6 of <ab|cd> integrals:      0.339 (MW) /      2.710 (MB)
	Size of irrep 7 of <ab|cd> integrals:      0.325 (MW) /      2.599 (MB)
	Total:                                     2.618 (MW) /     20.946 (MB)

	Size of irrep 0 of <Ab|Cd> integrals:      1.685 (MW) /     13.478 (MB)
	Size of irrep 1 of <Ab|Cd> integrals:      0.970 (MW) /      7.762 (MB)
	Size of irrep 2 of <Ab|Cd> integrals:      1.281 (MW) /     10.251 (MB)
	Size of irrep 3 of <Ab|Cd> integrals:      1.311 (MW) /     10.488 (MB)
	Size of irrep 4 of <Ab|Cd> integrals:      0.968 (MW) /      7.746 (MB)
	Size of irrep 5 of <Ab|Cd> integrals:      1.680 (MW) /     13.437 (MB)
	Size of irrep 6 of <Ab|Cd> integrals:      1.313 (MW) /     10.507 (MB)
	Size of irrep 7 of <Ab|Cd> integrals:      1.286 (MW) /     10.288 (MB)
	Total:                                    10.495 (MW) /     83.957 (MB)

	Size of irrep 0 of <IA|BC> integrals:      0.099 (MW) /      0.793 (MB)
	Size of irrep 1 of <IA|BC> integrals:      0.039 (MW) /      0.312 (MB)
	Size of irrep 2 of <IA|BC> integrals:      0.068 (MW) /      0.540 (MB)
	Size of irrep 3 of <IA|BC> integrals:      0.068 (MW) /      0.540 (MB)
	Size of irrep 4 of <IA|BC> integrals:      0.041 (MW) /      0.327 (MB)
	Size of irrep 5 of <IA|BC> integrals:      0.103 (MW) /      0.822 (MB)
	Size of irrep 6 of <IA|BC> integrals:      0.065 (MW) /      0.523 (MB)
	Size of irrep 7 of <IA|BC> integrals:      0.065 (MW) /      0.523 (MB)
	Total:                                     0.548 (MW) /      4.381 (MB)

	Size of irrep 0 of <ia|bc> integrals:      0.086 (MW) /      0.692 (MB)
	Size of irrep 1 of <ia|bc> integrals:      0.030 (MW) /      0.239 (MB)
	Size of irrep 2 of <ia|bc> integrals:      0.061 (MW) /      0.492 (MB)
	Size of irrep 3 of <ia|bc> integrals:      0.049 (MW) /      0.391 (MB)
	Size of irrep 4 of <ia|bc> integrals:      0.030 (MW) /      0.239 (MB)
	Size of irrep 5 of <ia|bc> integrals:      0.089 (MW) /      0.712 (MB)
	Size of irrep 6 of <ia|bc> integrals:      0.049 (MW) /      0.391 (MB)
	Size of irrep 7 of <ia|bc> integrals:      0.059 (MW) /      0.474 (MB)
	Total:                                     0.454 (MW) /      3.629 (MB)

	Size of irrep 0 of <Ia|Bc> integrals:      0.101 (MW) /      0.810 (MB)
	Size of irrep 1 of <Ia|Bc> integrals:      0.040 (MW) /      0.323 (MB)
	Size of irrep 2 of <Ia|Bc> integrals:      0.068 (MW) /      0.543 (MB)
	Size of irrep 3 of <Ia|Bc> integrals:      0.070 (MW) /      0.559 (MB)
	Size of irrep 4 of <Ia|Bc> integrals:      0.041 (MW) /      0.331 (MB)
	Size of irrep 5 of <Ia|Bc> integrals:      0.104 (MW) /      0.829 (MB)
	Size of irrep 6 of <Ia|Bc> integrals:      0.069 (MW) /      0.550 (MB)
	Size of irrep 7 of <Ia|Bc> integrals:      0.066 (MW) /      0.526 (MB)
	Total:                                     0.559 (MW) /      4.471 (MB)

	Size of irrep 0 of <iA|bC> integrals:      0.086 (MW) /      0.685 (MB)
	Size of irrep 1 of <iA|bC> integrals:      0.029 (MW) /      0.229 (MB)
	Size of irrep 2 of <iA|bC> integrals:      0.061 (MW) /      0.489 (MB)
	Size of irrep 3 of <iA|bC> integrals:      0.047 (MW) /      0.376 (MB)
	Size of irrep 4 of <iA|bC> integrals:      0.030 (MW) /      0.236 (MB)
	Size of irrep 5 of <iA|bC> integrals:      0.088 (MW) /      0.705 (MB)
	Size of irrep 6 of <iA|bC> integrals:      0.046 (MW) /      0.367 (MB)
	Size of irrep 7 of <iA|bC> integrals:      0.059 (MW) /      0.472 (MB)
	Total:                                     0.445 (MW) /      3.558 (MB)

	Size of irrep 0 of tIjAb amplitudes:       0.008 (MW) /      0.062 (MB)
	Size of irrep 1 of tIjAb amplitudes:       0.001 (MW) /      0.008 (MB)
	Size of irrep 2 of tIjAb amplitudes:       0.002 (MW) /      0.018 (MB)
	Size of irrep 3 of tIjAb amplitudes:       0.001 (MW) /      0.009 (MB)
	Size of irrep 4 of tIjAb amplitudes:       0.000 (MW) /      0.000 (MB)
	Size of irrep 5 of tIjAb amplitudes:       0.005 (MW) /      0.041 (MB)
	Size of irrep 6 of tIjAb amplitudes:       0.002 (MW) /      0.018 (MB)
	Size of irrep 7 of tIjAb amplitudes:       0.005 (MW) /      0.036 (MB)
	Total:                                     0.024 (MW) /      0.194 (MB)

	Nuclear Rep. energy          =     59.72981298405627
	SCF energy                   =   -681.15404460300147
	One-electron energy          =    -30.82315429826278
	Two-electron (AA) energy     =      2.96789047881303
	Two-electron (BB) energy     =      1.71894311787878
	Two-electron (AB) energy     =      7.06835078325029
	Two-electron energy          =     11.75518437994210
	Reference energy             =   -681.15404460300101

*** tstop() called on cqc05 at Thu Aug 20 20:04:11 2020
Module time:
	user time   =       1.26 seconds =       0.02 minutes
	system time =       0.66 seconds =       0.01 minutes
	total time  =          2 seconds =       0.03 minutes
Total time:
	user time   =       4.56 seconds =       0.08 minutes
	system time =       0.74 seconds =       0.01 minutes
	total time  =          5 seconds =       0.08 minutes

*** tstart() called on cqc05
*** at Thu Aug 20 20:04:11 2020

            **************************
            *                        *
            *        CCENERGY        *
            *                        *
            **************************

    Nuclear Rep. energy (wfn)     =   59.729812984056267
    SCF energy          (wfn)     = -681.154044603001466
    Reference energy    (file100) = -681.154044603001012

    Input parameters:
    -----------------
    Wave function   =     CCSD
    Reference wfn   =     UHF
    Brueckner       =     No
    Memory (Mbytes) =     250000.0
    Maxiter         =     50
    R_Convergence   =     1.0e-07
    E_Convergence   =     1.0e-06
    Restart         =     Yes
    DIIS            =     Yes
    AO Basis        =     NONE
    ABCD            =     NEW
    Cache Level     =     2
    Cache Type      =     LRU
    Print Level     =     1
    Num. of threads =     4
    # Amps to Print =     10
    Print MP2 Amps? =     No
    Analyze T2 Amps =     No
    Print Pair Ener =     No
    Local CC        =     No
    SCS-MP2         =     False
    SCSN-MP2        =     False
    SCS-CCSD        =     False

MP2 correlation energy -0.2328990461967905
                Solving CC Amplitude Equations
                ------------------------------
  Iter             Energy              RMS        T1Diag      D1Diag    New D1Diag    D2Diag
  ----     ---------------------    ---------   ----------  ----------  ----------   --------
     0        -0.232899046196791    0.000e+00    0.000000    0.000000    0.000000    0.000000
     1        -0.248466643086282    8.247e-02    0.017550    0.000000    0.000000    0.000000
     2        -0.258950992292770    3.059e-02    0.021175    0.000000    0.000000    0.000000
     3        -0.260969570906363    1.251e-02    0.024642    0.000000    0.000000    0.000000
     4        -0.261031029914274    3.404e-03    0.025237    0.000000    0.000000    0.000000
     5        -0.261035359300516    9.322e-04    0.025322    0.000000    0.000000    0.000000
     6        -0.261027865881473    3.033e-04    0.025325    0.000000    0.000000    0.000000
     7        -0.261030063866133    8.532e-05    0.025320    0.000000    0.000000    0.000000
     8        -0.261030921135968    2.554e-05    0.025319    0.000000    0.000000    0.000000
     9        -0.261030635434391    8.972e-06    0.025318    0.000000    0.000000    0.000000
    10        -0.261030670910125    3.160e-06    0.025317    0.000000    0.000000    0.000000
    11        -0.261030680073301    8.775e-07    0.025317    0.000000    0.000000    0.000000
    12        -0.261030714671812    3.178e-07    0.025317    0.000000    0.000000    0.000000
    13        -0.261030719143703    1.179e-07    0.025317    0.000000    0.000000    0.000000
    14        -0.261030719739318    4.408e-08    0.025317    0.000000    0.000000    0.000000
    14        -0.261030719739318    4.408e-08    0.025317    0.000000    0.000000    0.000000

    Iterations converged.

    CCSD corr. energy   =   -0.261030719739318

      * MP2 total energy                      = -681.386943649197747
      * CCSD total energy                     = -681.415075322740336
*** Psi4 exiting successfully. Buy a developer a beer!
