                               Psi4 1.2a1.dev938

  ==> Input File <==

--------------------------------------------------------------------------
# Any line starting with the # character is a comment line
memory 250000 mb
molecule molecule{
1 2
P          0.0000000000        0.0000000000        0.9966955025
P          0.0000000000        0.0000000000       -0.9966955025
}

set {
  reference uhf
  basis aug-cc-pv(d+d)z
  scf_type OUT_OF_CORE
  freeze_core true
}

energy('ccsd')
--------------------------------------------------------------------------

    Molecular point group: d2h

    Geometry (in Angstrom), charge = 1, multiplicity = 2:

       Center              X                  Y                   Z               Mass
    ------------   -----------------  -----------------  -----------------  -----------------
           P          0.000000000000     0.000000000000     0.996695502500    30.973761629000
           P          0.000000000000     0.000000000000    -0.996695502500    30.973761629000

  Charge       = 1
  Multiplicity = 2
  Basis Set: AUG-CC-PV(D+D)Z
    Blend: AUG-CC-PV(D+D)Z

    Orbital Energies (a.u.)
    -----------------------

    Alpha Occupied:

       1Ag   -80.289650     1B1u  -80.289646     2Ag    -7.824586
       2B1u   -7.824140     1B3u   -5.721493     1B2g   -5.721346
       3Ag    -5.713544     1B2u   -5.712899     1B3g   -5.712754
       3B1u   -5.712134     4Ag    -1.191432     4B1u   -0.896332
       5Ag    -0.670690     2B3u   -0.669651     2B2u   -0.630348

    Alpha Virtual:

       2B2g   -0.263523     2B3g   -0.235185     5B1u   -0.091100
       6Ag    -0.089838     3B3u   -0.061725     3B2u   -0.053381
       7Ag    -0.041398     3B2g   -0.014116     6B1u   -0.011061
       3B3g   -0.008411     1B1g    0.007419     8Ag     0.008210
       7B1u    0.057454     4B3u    0.067527     4B2u    0.085722
       1Au     0.150915     8B1u    0.151568     9Ag     0.152973
       4B2g    0.271921     4B3g    0.284643     9B1u    0.303015
       5B3u    0.433171     5B2u    0.458547    10Ag     0.485116
       6B3u    0.527923    11Ag     0.531162    10B1u    0.544830
       6B2u    0.545068     5B2g    0.547329     2B1g    0.566542
      12Ag     0.567677     5B3g    0.568152     2Au     0.636759
      11B1u    0.637245    13Ag     0.697908     6B2g    0.757813
       6B3g    0.780927    12B1u    0.956908    13B1u    1.226541
       7B3u    3.986848     7B2u    3.998889    14Ag     4.001973
       3B1g    4.002222    14B1u    4.046939     3Au     4.047208
      15Ag     4.138708     7B2g    4.139445     7B3g    4.151467
      15B1u    4.184552

    Beta Occupied:

       1Ag   -80.286722     1B1u  -80.286719     2Ag    -7.821015
       2B1u   -7.820651     3Ag    -5.712491     1B2u   -5.711432
       1B3g   -5.711284     3B1u   -5.711136     1B3u   -5.706277
       1B2g   -5.706142     4Ag    -1.125748     4B1u   -0.867595
       5Ag    -0.666798     2B2u   -0.615183

    Beta Virtual:

       2B3u   -0.304393     2B3g   -0.230052     2B2g   -0.177435
       5B1u   -0.084511     6Ag    -0.081286     3B2u   -0.052304
       3B3u   -0.048571     7Ag    -0.039056     3B3g   -0.007639
       3B2g   -0.004963     6B1u   -0.002362     1B1g    0.036876
       8Ag     0.037197     7B1u    0.059041     4B2u    0.087304
       4B3u    0.094489     9Ag     0.161285     1Au     0.163839
       8B1u    0.163931     4B3g    0.286423     4B2g    0.288013
       9B1u    0.310583     5B2u    0.463480     5B3u    0.473902
      10Ag     0.489230    11Ag     0.543754    10B1u    0.544366
       6B2u    0.546060     6B3u    0.548447     5B2g    0.569642
       5B3g    0.570171     2B1g    0.590136    12Ag     0.590685
       2Au     0.657807    11B1u    0.657889    13Ag     0.710472
       6B3g    0.784055     6B2g    0.784563    12B1u    0.965230
      13B1u    1.234817     7B3u    3.991969     7B2u    3.999579
      14Ag     4.005983     3B1g    4.006133    14B1u    4.050621
       3Au     4.050779    15Ag     4.140087     7B2g    4.143365
       7B3g    4.151904    15B1u    4.185442

    Final Occupation by Irrep:
             Ag   B1g   B2g   B3g    Au   B1u   B2u   B3u
    DOCC [     5,    0,    1,    1,    0,    4,    2,    1 ]
    SOCC [     0,    0,    0,    0,    0,    0,    0,    1 ]

  Energy converged.

  @UHF Final Energy:  -681.13459637187862

   => Energetics <=

    Nuclear Repulsion Energy =             59.7298129840562666
    One-Electron Energy =               -1053.3989825928185837
    Two-Electron Energy =                 312.5345732368837730
    PCM Polarization Energy =               0.0000000000000000
    Total Energy =                       -681.1345963718786152

    Alert: EFP and PCM quantities not currently incorporated into SCF psivars.
  UHF NO Occupations:
  HONO-2 :    4B1u 1.9983069
  HONO-1 :    5 Ag 1.9980994
  HONO-0 :    2B3u 1.0000000
  LUNO+0 :    6 Ag 0.0019006
  LUNO+1 :    5B1u 0.0016931
  LUNO+2 :    7 Ag 0.0001255
  LUNO+3 :    3B2u 0.0000948

Properties will be evaluated at   0.000000,   0.000000,   0.000000 Bohr

Properties computed using the SCF density matrix

  Nuclear Dipole Moment: (a.u.)
     X:     0.0000      Y:     0.0000      Z:    -0.0000

  Electronic Dipole Moment: (a.u.)
     X:     0.0000      Y:     0.0000      Z:     0.0000

  Dipole Moment: (a.u.)
     X:     0.0000      Y:     0.0000      Z:    -0.0000     Total:     0.0000

  Dipole Moment: (Debye)
     X:     0.0000      Y:     0.0000      Z:    -0.0000     Total:     0.0000

*** tstop() called on cqc05 at Thu Aug 20 19:54:57 2020
Module time:
	user time   =       1.17 seconds =       0.02 minutes
	system time =       0.03 seconds =       0.00 minutes
	total time  =          0 seconds =       0.00 minutes
Total time:
	user time   =       1.17 seconds =       0.02 minutes
	system time =       0.03 seconds =       0.00 minutes
	total time  =          0 seconds =       0.00 minutes

*** tstart() called on cqc05
*** at Thu Aug 20 19:54:57 2020

	Wfn Parameters:
	--------------------
	Wavefunction         = CCSD
	Number of irreps     = 8
	Number of MOs        = 64
	Number of active MOs = 54
	AO-Basis             = NONE
	Semicanonical        = false
	Reference            = UHF
	Print Level          = 1

	IRREP	# MOs	# FZDC	# DOCC	# SOCC	# VIRT	# FZVR
	-----	-----	------	------	------	------	------
	 Ag	   15	    3	    2	    0	    10	    0
	 B1g	   3	    0	    0	    0	    3	    0
	 B2g	   7	    1	    0	    0	    6	    0
	 B3g	   7	    1	    0	    0	    6	    0
	 Au	   3	    0	    0	    0	    3	    0
	 B1u	   15	    3	    1	    0	    11	    0
	 B2u	   7	    1	    1	    0	    5	    0
	 B3u	   7	    1	    0	    1	    5	    0
	Transforming integrals...
	IWL integrals will be deleted.
	(OO|OO)...
	Presorting SO-basis two-electron integrals.
	Sorting File: SO Ints (nn|nn) nbuckets = 1
	Transforming the one-electron integrals and constructing Fock matrices
	Starting AA/AB first half-transformation.
	Sorting AA/AB half-transformed integrals.
	Starting BB first half-transformation.
	Sorting BB half-transformed integrals.
	First half integral transformation complete.
	Starting AA second half-transformation.
	Starting AB second half-transformation.
	Starting BB second half-transformation.
	Two-electron integral transformation complete.
	(OO|OV)...
	Starting AA second half-transformation.
	Starting AB second half-transformation.
	Starting BB second half-transformation.
	Two-electron integral transformation complete.
	(OO|VV)...
	Starting AA second half-transformation.
	Starting AB second half-transformation.
	Starting BB second half-transformation.
	Two-electron integral transformation complete.
	(OV|OO)...
	Starting AA/AB first half-transformation.
	Sorting AA/AB half-transformed integrals.
	Starting BB first half-transformation.
	Sorting BB half-transformed integrals.
	First half integral transformation complete.
	Starting AA second half-transformation.
	Starting AB second half-transformation.
	Starting BB second half-transformation.
	Two-electron integral transformation complete.
	(OV|OV)...
	Starting AA second half-transformation.
	Starting AB second half-transformation.
	Starting BB second half-transformation.
	Two-electron integral transformation complete.
	(OV|VV)...
	Starting AA second half-transformation.
	Starting AB second half-transformation.
	Starting BB second half-transformation.
	Two-electron integral transformation complete.
	(VV|OO)...
	Starting AA/AB first half-transformation.
	Sorting AA/AB half-transformed integrals.
	Starting BB first half-transformation.
	Sorting BB half-transformed integrals.
	First half integral transformation complete.
	Starting AA second half-transformation.
	Starting AB second half-transformation.
	Starting BB second half-transformation.
	Two-electron integral transformation complete.
	(VV|OV)...
	Starting AA second half-transformation.
	Starting AB second half-transformation.
	Starting BB second half-transformation.
	Two-electron integral transformation complete.
	(VV|VV)...
	Starting AA second half-transformation.
	Starting AB second half-transformation.
	Starting BB second half-transformation.
	Two-electron integral transformation complete.
	Frozen core energy     =   -721.80738649601437

	Size of irrep 0 of <AB|CD> integrals:      0.024 (MW) /      0.195 (MB)
	Size of irrep 1 of <AB|CD> integrals:      0.015 (MW) /      0.123 (MB)
	Size of irrep 2 of <AB|CD> integrals:      0.022 (MW) /      0.175 (MB)
	Size of irrep 3 of <AB|CD> integrals:      0.022 (MW) /      0.175 (MB)
	Size of irrep 4 of <AB|CD> integrals:      0.015 (MW) /      0.121 (MB)
	Size of irrep 5 of <AB|CD> integrals:      0.032 (MW) /      0.256 (MB)
	Size of irrep 6 of <AB|CD> integrals:      0.022 (MW) /      0.178 (MB)
	Size of irrep 7 of <AB|CD> integrals:      0.022 (MW) /      0.178 (MB)
	Total:                                     0.175 (MW) /      1.401 (MB)

	Size of irrep 0 of <ab|cd> integrals:      0.026 (MW) /      0.207 (MB)
	Size of irrep 1 of <ab|cd> integrals:      0.017 (MW) /      0.133 (MB)
	Size of irrep 2 of <ab|cd> integrals:      0.025 (MW) /      0.202 (MB)
	Size of irrep 3 of <ab|cd> integrals:      0.023 (MW) /      0.182 (MB)
	Size of irrep 4 of <ab|cd> integrals:      0.017 (MW) /      0.133 (MB)
	Size of irrep 5 of <ab|cd> integrals:      0.034 (MW) /      0.274 (MB)
	Size of irrep 6 of <ab|cd> integrals:      0.023 (MW) /      0.185 (MB)
	Size of irrep 7 of <ab|cd> integrals:      0.025 (MW) /      0.202 (MB)
	Total:                                     0.190 (MW) /      1.519 (MB)

	Size of irrep 0 of <Ab|Cd> integrals:      0.134 (MW) /      1.072 (MB)
	Size of irrep 1 of <Ab|Cd> integrals:      0.064 (MW) /      0.512 (MB)
	Size of irrep 2 of <Ab|Cd> integrals:      0.094 (MW) /      0.754 (MB)
	Size of irrep 3 of <Ab|Cd> integrals:      0.089 (MW) /      0.715 (MB)
	Size of irrep 4 of <Ab|Cd> integrals:      0.064 (MW) /      0.508 (MB)
	Size of irrep 5 of <Ab|Cd> integrals:      0.132 (MW) /      1.060 (MB)
	Size of irrep 6 of <Ab|Cd> integrals:      0.091 (MW) /      0.725 (MB)
	Size of irrep 7 of <Ab|Cd> integrals:      0.095 (MW) /      0.759 (MB)
	Total:                                     0.763 (MW) /      6.105 (MB)

	Size of irrep 0 of <IA|BC> integrals:      0.015 (MW) /      0.118 (MB)
	Size of irrep 1 of <IA|BC> integrals:      0.005 (MW) /      0.038 (MB)
	Size of irrep 2 of <IA|BC> integrals:      0.009 (MW) /      0.073 (MB)
	Size of irrep 3 of <IA|BC> integrals:      0.009 (MW) /      0.073 (MB)
	Size of irrep 4 of <IA|BC> integrals:      0.005 (MW) /      0.041 (MB)
	Size of irrep 5 of <IA|BC> integrals:      0.016 (MW) /      0.126 (MB)
	Size of irrep 6 of <IA|BC> integrals:      0.009 (MW) /      0.069 (MB)
	Size of irrep 7 of <IA|BC> integrals:      0.009 (MW) /      0.069 (MB)
	Total:                                     0.076 (MW) /      0.609 (MB)

	Size of irrep 0 of <ia|bc> integrals:      0.013 (MW) /      0.107 (MB)
	Size of irrep 1 of <ia|bc> integrals:      0.004 (MW) /      0.031 (MB)
	Size of irrep 2 of <ia|bc> integrals:      0.007 (MW) /      0.053 (MB)
	Size of irrep 3 of <ia|bc> integrals:      0.008 (MW) /      0.068 (MB)
	Size of irrep 4 of <ia|bc> integrals:      0.004 (MW) /      0.031 (MB)
	Size of irrep 5 of <ia|bc> integrals:      0.014 (MW) /      0.112 (MB)
	Size of irrep 6 of <ia|bc> integrals:      0.008 (MW) /      0.063 (MB)
	Size of irrep 7 of <ia|bc> integrals:      0.007 (MW) /      0.053 (MB)
	Total:                                     0.065 (MW) /      0.519 (MB)

	Size of irrep 0 of <Ia|Bc> integrals:      0.015 (MW) /      0.123 (MB)
	Size of irrep 1 of <Ia|Bc> integrals:      0.005 (MW) /      0.040 (MB)
	Size of irrep 2 of <Ia|Bc> integrals:      0.010 (MW) /      0.079 (MB)
	Size of irrep 3 of <Ia|Bc> integrals:      0.009 (MW) /      0.074 (MB)
	Size of irrep 4 of <Ia|Bc> integrals:      0.005 (MW) /      0.042 (MB)
	Size of irrep 5 of <Ia|Bc> integrals:      0.016 (MW) /      0.128 (MB)
	Size of irrep 6 of <Ia|Bc> integrals:      0.009 (MW) /      0.070 (MB)
	Size of irrep 7 of <Ia|Bc> integrals:      0.010 (MW) /      0.076 (MB)
	Total:                                     0.079 (MW) /      0.633 (MB)

	Size of irrep 0 of <iA|bC> integrals:      0.013 (MW) /      0.105 (MB)
	Size of irrep 1 of <iA|bC> integrals:      0.004 (MW) /      0.028 (MB)
	Size of irrep 2 of <iA|bC> integrals:      0.006 (MW) /      0.049 (MB)
	Size of irrep 3 of <iA|bC> integrals:      0.008 (MW) /      0.067 (MB)
	Size of irrep 4 of <iA|bC> integrals:      0.004 (MW) /      0.030 (MB)
	Size of irrep 5 of <iA|bC> integrals:      0.014 (MW) /      0.111 (MB)
	Size of irrep 6 of <iA|bC> integrals:      0.008 (MW) /      0.063 (MB)
	Size of irrep 7 of <iA|bC> integrals:      0.006 (MW) /      0.047 (MB)
	Total:                                     0.063 (MW) /      0.500 (MB)

	Size of irrep 0 of tIjAb amplitudes:       0.002 (MW) /      0.018 (MB)
	Size of irrep 1 of tIjAb amplitudes:       0.000 (MW) /      0.002 (MB)
	Size of irrep 2 of tIjAb amplitudes:       0.000 (MW) /      0.002 (MB)
	Size of irrep 3 of tIjAb amplitudes:       0.001 (MW) /      0.005 (MB)
	Size of irrep 4 of tIjAb amplitudes:       0.000 (MW) /      0.000 (MB)
	Size of irrep 5 of tIjAb amplitudes:       0.001 (MW) /      0.012 (MB)
	Size of irrep 6 of tIjAb amplitudes:       0.001 (MW) /      0.010 (MB)
	Size of irrep 7 of tIjAb amplitudes:       0.001 (MW) /      0.005 (MB)
	Total:                                     0.007 (MW) /      0.053 (MB)

	Nuclear Rep. energy          =     59.72981298405627
	SCF energy                   =   -681.13459637187862
	One-electron energy          =    -30.78026829029108
	Two-electron (AA) energy     =      2.95953811382961
	Two-electron (BB) energy     =      1.71543174612735
	Two-electron (AB) energy     =      7.04827557041442
	Two-electron energy          =     11.72324543037138
	Reference energy             =   -681.13459637187782

*** tstop() called on cqc05 at Thu Aug 20 19:54:58 2020
Module time:
	user time   =       0.21 seconds =       0.00 minutes
	system time =       0.10 seconds =       0.00 minutes
	total time  =          1 seconds =       0.02 minutes
Total time:
	user time   =       1.38 seconds =       0.02 minutes
	system time =       0.13 seconds =       0.00 minutes
	total time  =          1 seconds =       0.02 minutes

*** tstart() called on cqc05
*** at Thu Aug 20 19:54:58 2020

            **************************
            *                        *
            *        CCENERGY        *
            *                        *
            **************************

    Nuclear Rep. energy (wfn)     =   59.729812984056267
    SCF energy          (wfn)     = -681.134596371878615
    Reference energy    (file100) = -681.134596371877819

    Input parameters:
    -----------------
    Wave function   =     CCSD
    Reference wfn   =     UHF
    Brueckner       =     No
    Memory (Mbytes) =     250000.0
    Maxiter         =     50
    R_Convergence   =     1.0e-07
    E_Convergence   =     1.0e-06
    Restart         =     Yes
    DIIS            =     Yes
    AO Basis        =     NONE
    ABCD            =     NEW
    Cache Level     =     2
    Cache Type      =     LRU
    Print Level     =     1
    Num. of threads =     4
    # Amps to Print =     10
    Print MP2 Amps? =     No
    Analyze T2 Amps =     No
    Print Pair Ener =     No
    Local CC        =     No
    SCS-MP2         =     False
    SCSN-MP2        =     False
    SCS-CCSD        =     False

MP2 correlation energy -0.1934284955822584
                Solving CC Amplitude Equations
                ------------------------------
  Iter             Energy              RMS        T1Diag      D1Diag    New D1Diag    D2Diag
  ----     ---------------------    ---------   ----------  ----------  ----------   --------
     0        -0.193428495582259    0.000e+00    0.000000    0.000000    0.000000    0.000000
     1        -0.211823084531151    8.382e-02    0.017025    0.000000    0.000000    0.000000
     2        -0.222503030260531    3.162e-02    0.021421    0.000000    0.000000    0.000000
     3        -0.224295455614771    1.163e-02    0.024389    0.000000    0.000000    0.000000
     4        -0.224418084518874    3.621e-03    0.024925    0.000000    0.000000    0.000000
     5        -0.224414069166934    9.596e-04    0.025000    0.000000    0.000000    0.000000
     6        -0.224410309980164    2.877e-04    0.024992    0.000000    0.000000    0.000000
     7        -0.224413373610553    8.523e-05    0.024983    0.000000    0.000000    0.000000
     8        -0.224413609401174    2.468e-05    0.024981    0.000000    0.000000    0.000000
     9        -0.224413446951335    7.787e-06    0.024980    0.000000    0.000000    0.000000
    10        -0.224413490379618    2.539e-06    0.024980    0.000000    0.000000    0.000000
    11        -0.224413482656600    8.931e-07    0.024980    0.000000    0.000000    0.000000
    12        -0.224413516607868    3.251e-07    0.024980    0.000000    0.000000    0.000000
    13        -0.224413516691425    1.103e-07    0.024980    0.000000    0.000000    0.000000
    14        -0.224413517270745    3.895e-08    0.024980    0.000000    0.000000    0.000000
    14        -0.224413517270745    3.895e-08    0.024980    0.000000    0.000000    0.000000

    Iterations converged.

    CCSD corr. energy   =   -0.224413517270745
    PPL corr. energy    =    0.070590199352943
    OS PPL corr. energy =    0.059442795259873
    SS PPL corr. energy =    0.011147404093070
    Largest TIA Amplitudes:
              3  40         0.0283271735
              4  45         0.0218811445
              3  42        -0.0160858693
              2  28         0.0142774077
              3  41        -0.0136751806
              2  29         0.0136018634
              4  47        -0.0124011178
              4  46        -0.0084458866
              1   7        -0.0082603265
              0   7         0.0059224469

    Largest Tia Amplitudes:
              2  29         0.0275383735
              3  40         0.0273735753
              2  28         0.0213371241
              3  42        -0.0166120210
              3  41        -0.0142672785
              0   2         0.0112635705
              0   3        -0.0089441751
              0   7         0.0077158098
              2  32        -0.0076880611
              3  39         0.0071533007

    Largest TIJAB Amplitudes:
      4   3  19  13         0.0855204710

      * MP2 total energy                      = -681.328024867460044
      * CCSD total energy                     = -681.359009889148524
*** Psi4 exiting successfully. Buy a developer a beer!
