                               Psi4 1.2a1.dev939

  ==> Input File <==

--------------------------------------------------------------------------
# Any line starting with the # character is a comment line
memory 250000 mb
molecule molecule{
1 2
P          0.0000000000        0.0000000000        0.9966955025
P          0.0000000000        0.0000000000       -0.9966955025
}

set {
  reference uhf
  basis aug-cc-pv(6+d)z
  scf_type OUT_OF_CORE
  freeze_core true
}

energy('ccsd')
--------------------------------------------------------------------------

    Molecular point group: d2h

    Geometry (in Angstrom), charge = 1, multiplicity = 2:

       Center              X                  Y                   Z               Mass
    ------------   -----------------  -----------------  -----------------  -----------------
           P          0.000000000000     0.000000000000     0.996695502500    30.973761629000
           P          0.000000000000     0.000000000000    -0.996695502500    30.973761629000

  Charge       = 1
  Multiplicity = 2
  Basis Set: AUG-CC-PV(6+D)Z
    Blend: AUG-CC-PV(6+D)Z

    Orbital Energies (a.u.)
    -----------------------

    Alpha Occupied:

       1Ag   -80.300532     1B1u  -80.300526     2Ag    -7.835294
       2B1u   -7.834800     3Ag    -5.735667     3B1u   -5.734176
       1B3u   -5.723817     1B2u   -5.723817     1B2g   -5.723662
       1B3g   -5.723662     4Ag    -1.185116     4B1u   -0.925741
       5Ag    -0.732860     2B3u   -0.622848     2B2u   -0.622848

    Alpha Virtual:

       2B2g   -0.246316     2B3g   -0.246316     5B1u   -0.100628
       6Ag    -0.097745     3B3u   -0.070428     3B2u   -0.070428
       7Ag    -0.060272     6B1u   -0.051304     3B2g   -0.040095
       3B3g   -0.040095     8Ag    -0.032575     1B1g   -0.032575
       7B1u    0.001847     4B3u    0.009513     4B2u    0.009513
       9Ag     0.018311     1Au     0.035092     8B1u    0.035092
       4B2g    0.055819     4B3g    0.055819     9B1u    0.058992
       5B3u    0.070345     5B2u    0.070345    10Ag     0.093803
       6B3u    0.134869     6B2u    0.134869     2B1g    0.141020
      11Ag     0.141020    12Ag     0.142931    10B1u    0.150283
       7B2u    0.157677     7B3u    0.157677     5B2g    0.165900
       5B3g    0.165900     2Au     0.195748    11B1u    0.195748
      13Ag     0.221168     3B1g    0.234368    14Ag     0.234368
       6B2g    0.239499     6B3g    0.239499     7B2g    0.245620
       7B3g    0.245620    12B1u    0.256774     8B3u    0.299269
       8B2u    0.299269    13B1u    0.356505     3Au     0.356830
      14B1u    0.356830    15Ag     0.364967     8B2g    0.483192
       8B3g    0.483192     9B3u    0.487434     9B2u    0.487434
      16Ag     0.490660     4B1g    0.490660    15B1u    0.533182
      10B2u    0.563057    10B3u    0.563057     4Au     0.594668
      16B1u    0.594668    17B1u    0.606799     5Au     0.606799
      11B3u    0.608027    11B2u    0.608027    18B1u    0.611874
      17Ag     0.611952     5B1g    0.619552    18Ag     0.619552
       9B2g    0.636920     9B3g    0.636920    19Ag     0.663993
      10B2g    0.683888    10B3g    0.683888    12B2u    0.684918
      12B3u    0.684918     6B1g    0.692830    20Ag     0.692830
      11B2g    0.718960    11B3g    0.718960    13B2u    0.721999
      13B3u    0.721999    21Ag     0.752328     7B1g    0.776482
      22Ag     0.776482     6Au     0.791296    19B1u    0.791296
      23Ag     0.819017    20B1u    0.827948    12B3g    0.847926
      12B2g    0.847926    13B2g    0.850500    13B3g    0.850500
      21B1u    0.963932    14B2u    1.109030    14B3u    1.109030
       7Au     1.147973    22B1u    1.147973    23B1u    1.164854
      15B2u    1.354670    15B3u    1.354670    14B2g    1.362929
      14B3g    1.362929     8B1g    1.376940    24Ag     1.376940
      25Ag     1.419601    16B3u    1.456215    16B2u    1.456215
      26Ag     1.496230     9B1g    1.496230    15B2g    1.501275
      15B3g    1.501275    24B1u    1.522698    10B1g    1.556635
      27Ag     1.556635    25B1u    1.580114     8Au     1.580114
      17B2u    1.593496    17B3u    1.593496    18B2u    1.626311
      18B3u    1.626311    28Ag     1.634302     9Au     1.635697
      26B1u    1.635697    16B2g    1.643648    16B3g    1.643648
      19B2u    1.647771    19B3u    1.647771    11B1g    1.648552
      29Ag     1.648552    17B2g    1.654252    17B3g    1.654252
      27B1u    1.666933    30Ag     1.675556    28B1u    1.687660
      10Au     1.687660    11Au     1.739736    29B1u    1.739736
      20B2u    1.790096    20B3u    1.790096    21B2u    1.797836
      21B3u    1.797836    12B1g    1.809924    31Ag     1.809924
      30B1u    1.840251    18B2g    1.858055    18B3g    1.858055
      19B2g    1.906942    19B3g    1.906942    20B2g    1.997941
      20B3g    1.997941    22B2u    2.034086    22B3u    2.034086
      31B1u    2.053723    12Au     2.053723    32Ag     2.060115
      33Ag     2.087572    21B2g    2.141600    21B3g    2.141600
      32B1u    2.181886    34Ag     2.193101    13B1g    2.193101
      22B2g    2.361050    22B3g    2.361050    33B1u    2.543608
      23B2u    2.629346    23B3u    2.629346    13Au     2.730296
      34B1u    2.730296    35Ag     2.768247    24B3u    3.021889
      24B2u    3.021889    36Ag     3.125236    14B1g    3.125236
      15B1g    3.125440    37Ag     3.125440    35B1u    3.150610
      25B2u    3.163835    25B3u    3.163835    23B2g    3.172690
      23B3g    3.172690    16B1g    3.218679    38Ag     3.218679
      14Au     3.228535    36B1u    3.228535    17B1g    3.349070
      39Ag     3.349070    26B2u    3.354457    26B3u    3.354457
      40Ag     3.366757    37B1u    3.410308    15Au     3.410308
      27B3u    3.435349    27B2u    3.435349    18B1g    3.453541
      41Ag     3.453541    38B1u    3.453628    16Au     3.453628
      24B3g    3.459697    24B2g    3.459697    28B3u    3.509624
      28B2u    3.509624    25B3g    3.520206    25B2g    3.520206
      26B2g    3.521751    26B3g    3.521751    29B2u    3.545694
      29B3u    3.545694    27B2g    3.576574    27B3g    3.576574
      39B1u    3.609800    42Ag     3.640127    19B1g    3.640127
      43Ag     3.645134    17Au     3.664428    40B1u    3.664428
      41B1u    3.726222    18Au     3.726222    30B2u    3.735789
      30B3u    3.735789    44Ag     3.770231    31B3u    3.814570
      31B2u    3.814570    42B1u    3.817665    28B2g    3.880573
      28B3g    3.880573    19Au     3.939074    43B1u    3.939074
      29B2g    4.002127    29B3g    4.002127    32B2u    4.023947
      32B3u    4.023947    44B1u    4.064219    20Au     4.064219
      20B1g    4.072805    45Ag     4.072805    21B1g    4.122587
      46Ag     4.122587    30B2g    4.153742    30B3g    4.153742
      45B1u    4.173476    31B2g    4.333874    31B3g    4.333874
      47Ag     4.362547    33B3u    4.362636    33B2u    4.362636
      46B1u    4.488381    48Ag     4.567265    22B1g    4.583239
      49Ag     4.583239    21Au     4.702295    47B1u    4.702295
      32B2g    4.714441    32B3g    4.714441    33B2g    4.846857
      33B3g    4.846857    50Ag     4.919174    48B1u    5.102037
      34B3u    5.379143    34B2u    5.379143    49B1u    5.614921
      22Au     5.614921    34B2g    5.622705    34B3g    5.622705
      50B1u    6.155456    35B3u    6.191108    35B2u    6.191108
      35B2g    6.691481    35B3g    6.691481    51Ag     6.711660
      23B1g    6.812095    52Ag     6.812095    36B3u    6.822977
      36B2u    6.822977    24B1g    6.848968    53Ag     6.848968
      51B1u    6.869483    23Au     6.869483    37B3u    6.878861
      37B2u    6.878861    36B2g    7.001299    36B3g    7.001299
      38B3u    7.162179    38B2u    7.162179    39B3u    7.182530
      39B2u    7.182530    25B1g    7.205392    54Ag     7.205392
      26B1g    7.218435    55Ag     7.218435    52B1u    7.259053
      24Au     7.259053    56Ag     7.259530    53B1u    7.263523
      25Au     7.267285    54B1u    7.267285    27B1g    7.275304
      57Ag     7.275304    40B2u    7.300524    40B3u    7.300524
      37B3g    7.369877    37B2g    7.369877    55B1u    7.565863
      58Ag     7.588454    28B1g    7.588454    41B3u    7.590844
      41B2u    7.590844    26Au     7.606137    56B1u    7.606137
      38B2g    7.646557    38B3g    7.646557    39B2g    7.661965
      39B3g    7.661965    42B2u    7.731139    42B3u    7.731139
      57B1u    7.758194    27Au     7.758194    59Ag     7.787167
      28Au     7.914303    58B1u    7.914303    40B3g    7.923933
      40B2g    7.923933    41B2g    7.942620    41B3g    7.942620
      29B1g    7.984033    60Ag     7.984033    42B3g    8.078293
      42B2g    8.078293    43B2u    8.117990    43B3u    8.117990
      59B1u    8.143726    60B1u    8.383847    61Ag     8.410866
      61B1u    8.453636    29Au     8.453636    44B3u    8.740989
      44B2u    8.740989    43B2g    8.844920    43B3g    8.844920
      30B1g    8.854683    62Ag     8.854683    31B1g    9.017640
      63Ag     9.017640    44B2g    9.087285    44B3g    9.087285
      62B1u    9.198618    30Au     9.249766    63B1u    9.249766
      45B3u    9.354912    45B2u    9.354912    64Ag     9.366731
      64B1u    9.789316    31Au     9.789316    45B2g    9.878946
      45B3g    9.878946    46B3u    9.991740    46B2u    9.991740
      65Ag    10.390757    46B3g   10.494639    46B2g   10.494639
      65B1u   10.676863    66Ag    11.224051    66B1u   13.314543
      32B1g   25.580588    67Ag    25.580588    47B3u   25.714490
      47B2u   25.714490    68Ag    25.913113    32Au    25.914248
      67B1u   25.914248    47B2g   26.106145    47B3g   26.106145
      48B3u   26.109692    48B2u   26.109692    68B1u   26.308469
      48B2g   27.087204    48B3g   27.087204    69B1u   28.526088
      69Ag    29.666036    70Ag   211.129248    70B1u  214.908247

    Beta Occupied:

       1Ag   -80.295804     1B1u  -80.295801     2Ag    -7.830616
       2B1u   -7.830304     1B2u   -5.721432     1B3u   -5.721432
       1B3g   -5.721310     1B2g   -5.721310     3Ag    -5.711500
       3B1u   -5.710171     4Ag    -1.112932     4B1u   -0.823042
       2B2u   -0.617925     2B3u   -0.617925

    Beta Virtual:

       5Ag    -0.331740     2B3g   -0.231647     2B2g   -0.231647
       6Ag    -0.090457     5B1u   -0.089836     3B3u   -0.069457
       3B2u   -0.069457     7Ag    -0.054442     3B2g   -0.039942
       3B3g   -0.039942     1B1g   -0.033131     8Ag    -0.033131
       6B1u   -0.027331     7B1u    0.014625     4B3u    0.021387
       4B2u    0.021387     9Ag     0.029674     1Au     0.035540
       8B1u    0.035540     4B2g    0.055827     4B3g    0.055827
       9B1u    0.071204     5B3u    0.072024     5B2u    0.072024
      10Ag     0.106993     2B1g    0.139999    11Ag     0.139999
      12Ag     0.153184     6B3u    0.157425     6B2u    0.157425
       7B2u    0.160444     7B3u    0.160444     5B2g    0.166828
       5B3g    0.166828    10B1u    0.168871     2Au     0.197617
      11B1u    0.197617    13Ag     0.233237     3B1g    0.236158
      14Ag     0.236158     6B3g    0.239593     6B2g    0.239593
       7B2g    0.249416     7B3g    0.249416    12B1u    0.261281
       8B3u    0.306350     8B2u    0.306350     3Au     0.356373
      13B1u    0.356373    14B1u    0.358939    15Ag     0.385642
      16Ag     0.490384     4B1g    0.490384     9B3u    0.491085
       9B2u    0.491085     8B2g    0.493479     8B3g    0.493479
      15B1u    0.552395    10B2u    0.562741    10B3u    0.562741
      16B1u    0.598060     4Au     0.598060    17B1u    0.606803
       5Au     0.606803     5B1g    0.619957    17Ag     0.619957
      11B3u    0.620375    11B2u    0.620375    18B1u    0.621359
      18Ag     0.624515     9B2g    0.643978     9B3g    0.643978
      19Ag     0.683710    10B2g    0.685185    10B3g    0.685185
      12B2u    0.685214    12B3u    0.685214     6B1g    0.699691
      20Ag     0.699691    11B2g    0.722908    11B3g    0.722908
      13B2u    0.732623    13B3u    0.732623    21Ag     0.768240
       7B1g    0.778563    22Ag     0.778563     6Au     0.790433
      19B1u    0.790433    23Ag     0.826523    20B1u    0.841319
      12B3g    0.847008    12B2g    0.847008    13B2g    0.860365
      13B3g    0.860365    21B1u    0.989504    14B2u    1.116549
      14B3u    1.116549     7Au     1.152731    22B1u    1.152731
      23B1u    1.172708    15B3u    1.354292    15B2u    1.354292
      14B2g    1.371670    14B3g    1.371670     8B1g    1.376742
      24Ag     1.376742    25Ag     1.427680    16B3u    1.458310
      16B2u    1.458310    26Ag     1.496724     9B1g    1.496724
      15B2g    1.501098    15B3g    1.501098    24B1u    1.530498
      10B1g    1.564299    27Ag     1.564299    25B1u    1.580790
       8Au     1.580790    17B3u    1.603544    17B2u    1.603544
      18B2u    1.636661    18B3u    1.636661     9Au     1.640757
      26B1u    1.640757    16B2g    1.648403    16B3g    1.648403
      28Ag     1.649008    19B2u    1.650929    19B3u    1.650929
      11B1g    1.658024    29Ag     1.658024    17B2g    1.660619
      17B3g    1.660619    27B1u    1.673775    30Ag     1.686207
      28B1u    1.688122    10Au     1.688122    11Au     1.739526
      29B1u    1.739526    20B2u    1.790142    20B3u    1.790142
      12B1g    1.810649    31Ag     1.810649    21B2u    1.812925
      21B3u    1.812925    18B2g    1.856595    18B3g    1.856595
      30B1u    1.861822    19B2g    1.909284    19B3g    1.909284
      20B2g    2.004041    20B3g    2.004041    22B2u    2.035738
      22B3u    2.035738    31B1u    2.060719    12Au     2.060719
      32Ag     2.071055    33Ag     2.111355    21B2g    2.142146
      21B3g    2.142146    34Ag     2.197168    13B1g    2.197168
      32B1u    2.197983    22B2g    2.373583    22B3g    2.373583
      33B1u    2.546221    23B2u    2.639285    23B3u    2.639285
      13Au     2.732532    34B1u    2.732532    35Ag     2.783042
      24B3u    3.022955    24B2u    3.022955    36Ag     3.124798
      14B1g    3.124798    15B1g    3.127471    37Ag     3.127471
      35B1u    3.158804    25B2u    3.170041    25B3u    3.170041
      23B2g    3.176878    23B3g    3.176878    14Au     3.228108
      36B1u    3.228108    16B1g    3.231322    38Ag     3.231322
      17B1g    3.348743    39Ag     3.348743    26B2u    3.370141
      26B3u    3.370141    40Ag     3.388322    37B1u    3.410563
      15Au     3.410563    27B3u    3.434925    27B2u    3.434925
      18B1g    3.457260    41Ag     3.457260    24B3g    3.460668
      24B2g    3.460668    38B1u    3.461785    16Au     3.461785
      28B2u    3.517205    28B3u    3.517205    25B2g    3.521270
      25B3g    3.521270    26B3g    3.527871    26B2g    3.527871
      29B2u    3.554614    29B3u    3.554614    27B2g    3.587731
      27B3g    3.587731    39B1u    3.623400    42Ag     3.650783
      19B1g    3.650783    43Ag     3.658513    17Au     3.667481
      40B1u    3.667481    41B1u    3.732076    18Au     3.732076
      30B2u    3.742524    30B3u    3.742524    44Ag     3.771507
      31B3u    3.816895    31B2u    3.816895    42B1u    3.828163
      28B2g    3.884397    28B3g    3.884397    19Au     3.940097
      43B1u    3.940097    29B3g    4.002096    29B2g    4.002096
      32B2u    4.024243    32B3u    4.024243    44B1u    4.068951
      20Au     4.068951    20B1g    4.076348    45Ag     4.076348
      21B1g    4.126923    46Ag     4.126923    30B2g    4.159857
      30B3g    4.159857    45B1u    4.184897    31B2g    4.341260
      31B3g    4.341260    47Ag     4.372314    33B3u    4.375896
      33B2u    4.375896    46B1u    4.495829    48Ag     4.579543
      22B1g    4.586469    49Ag     4.586469    21Au     4.707432
      47B1u    4.707432    32B2g    4.716093    32B3g    4.716093
      33B2g    4.854131    33B3g    4.854131    50Ag     4.937771
      48B1u    5.107839    34B3u    5.385666    34B2u    5.385666
      49B1u    5.618021    22Au     5.618021    34B2g    5.631995
      34B3g    5.631995    50B1u    6.168402    35B3u    6.192969
      35B2u    6.192969    35B2g    6.695929    35B3g    6.695929
      51Ag     6.724396    23B1g    6.811508    52Ag     6.811508
      36B3u    6.827067    36B2u    6.827067    24B1g    6.859322
      53Ag     6.859322    51B1u    6.869264    23Au     6.869264
      37B3u    6.891681    37B2u    6.891681    36B2g    7.006492
      36B3g    7.006492    38B3u    7.168888    38B2u    7.168888
      39B3u    7.184748    39B2u    7.184748    25B1g    7.210103
      54Ag     7.210103    26B1g    7.217782    55Ag     7.217782
      24Au     7.266631    52B1u    7.266631    53B1u    7.268658
      25Au     7.268658    56Ag     7.269730    54B1u    7.273823
      27B1g    7.282664    57Ag     7.282664    40B2u    7.311263
      40B3u    7.311263    37B3g    7.371560    37B2g    7.371560
      55B1u    7.580933    41B3u    7.590014    41B2u    7.590014
      58Ag     7.591525    28B1g    7.591525    26Au     7.609260
      56B1u    7.609260    38B2g    7.646133    38B3g    7.646133
      39B2g    7.673031    39B3g    7.673031    42B2u    7.737849
      42B3u    7.737849    57B1u    7.761918    27Au     7.761918
      59Ag     7.798529    28Au     7.920689    58B1u    7.920689
      40B2g    7.929015    40B3g    7.929015    41B2g    7.948814
      41B3g    7.948814    29B1g    7.991933    60Ag     7.991933
      42B3g    8.083767    42B2g    8.083767    43B2u    8.125067
      43B3u    8.125067    59B1u    8.153181    60B1u    8.390628
      61Ag     8.417986    61B1u    8.458863    29Au     8.458863
      44B3u    8.740839    44B2u    8.740839    43B2g    8.845060
      43B3g    8.845060    30B1g    8.858081    62Ag     8.858081
      31B1g    9.018184    63Ag     9.018184    44B2g    9.094338
      44B3g    9.094338    62B1u    9.207374    30Au     9.253381
      63B1u    9.253381    45B3u    9.362839    45B2u    9.362839
      64Ag     9.374877    64B1u    9.790724    31Au     9.790724
      45B2g    9.883971    45B3g    9.883971    46B3u    9.996456
      46B2u    9.996456    65Ag    10.402042    46B3g   10.501108
      46B2g   10.501108    65B1u   10.683576    66Ag    11.229316
      66B1u   13.319289    32B1g   25.581655    67Ag    25.581655
      47B3u   25.717451    47B2u   25.717451    32Au    25.915351
      67B1u   25.915351    68Ag    25.922713    47B2g   26.112750
      47B3g   26.112750    48B3u   26.115521    48B2u   26.115521
      68B1u   26.318041    48B2g   27.089219    48B3g   27.089219
      69B1u   28.538801    69Ag    29.677950    70Ag   211.130773
      70B1u  214.909825

    Final Occupation by Irrep:
             Ag   B1g   B2g   B3g    Au   B1u   B2u   B3u
    DOCC [     4,    0,    1,    1,    0,    4,    2,    2 ]
    SOCC [     1,    0,    0,    0,    0,    0,    0,    0 ]

  Energy converged.

  @UHF Final Energy:  -681.11912041768949

   => Energetics <=

    Nuclear Repulsion Energy =             59.7298129840562595
    One-Electron Energy =               -1053.2409983031971024
    Two-Electron Energy =                 312.3920649014513629
    Total Energy =                       -681.1191204176894871

  UHF NO Occupations:
  HONO-2 :    4 Ag 1.9966859
  HONO-1 :    4B1u 1.9843760
  HONO-0 :    5 Ag 1.0000000
  LUNO+0 :    5B1u 0.0156240
  LUNO+1 :    6 Ag 0.0033141
  LUNO+2 :    3B3u 0.0003349
  LUNO+3 :    3B2u 0.0003349

Properties will be evaluated at   0.000000,   0.000000,   0.000000 Bohr

Properties computed using the SCF density matrix

  Nuclear Dipole Moment: (a.u.)
     X:     0.0000      Y:     0.0000      Z:    -0.0000

  Electronic Dipole Moment: (a.u.)
     X:     0.0000      Y:     0.0000      Z:     0.0000

  Dipole Moment: (a.u.)
     X:     0.0000      Y:     0.0000      Z:    -0.0000     Total:     0.0000

  Dipole Moment: (Debye)
     X:     0.0000      Y:     0.0000      Z:    -0.0000     Total:     0.0000

*** tstop() called on n412-050.vsc4.prov at Sat Oct 31 05:39:05 2020
Module time:
	user time   =    1152.90 seconds =      19.21 minutes
	system time =      40.03 seconds =       0.67 minutes
	total time  =       1137 seconds =      18.95 minutes
Total time:
	user time   =    1152.90 seconds =      19.21 minutes
	system time =      40.03 seconds =       0.67 minutes
	total time  =       1137 seconds =      18.95 minutes

*** tstart() called on n412-050.vsc4.prov
*** at Sat Oct 31 05:39:05 2020

	Wfn Parameters:
	--------------------
	Wavefunction         = CCSD
	Number of irreps     = 8
	Number of MOs        = 396
	Number of active MOs = 386
	AO-Basis             = NONE
	Semicanonical        = false
	Reference            = UHF
	Print Level          = 1

	IRREP	# MOs	# FZDC	# DOCC	# SOCC	# VIRT	# FZVR
	-----	-----	------	------	------	------	------
	 Ag	   70	    3	    1	    1	    65	    0
	 B1g	   32	    0	    0	    0	    32	    0
	 B2g	   48	    1	    0	    0	    47	    0
	 B3g	   48	    1	    0	    0	    47	    0
	 Au	   32	    0	    0	    0	    32	    0
	 B1u	   70	    3	    1	    0	    66	    0
	 B2u	   48	    1	    1	    0	    46	    0
	 B3u	   48	    1	    1	    0	    46	    0
	Transforming integrals...
	IWL integrals will be deleted.
	(OO|OO)...
	Presorting SO-basis two-electron integrals.
	Sorting File: SO Ints (nn|nn) nbuckets = 1
	Transforming the one-electron integrals and constructing Fock matrices
	Starting AA/AB first half-transformation.
	Sorting AA/AB half-transformed integrals.
	Starting BB first half-transformation.
	Sorting BB half-transformed integrals.
	First half integral transformation complete.
	Starting AA second half-transformation.
	Starting AB second half-transformation.
	Starting BB second half-transformation.
	Two-electron integral transformation complete.
	(OO|OV)...
	Starting AA second half-transformation.
	Starting AB second half-transformation.
	Starting BB second half-transformation.
	Two-electron integral transformation complete.
	(OO|VV)...
	Starting AA second half-transformation.
	Starting AB second half-transformation.
	Starting BB second half-transformation.
	Two-electron integral transformation complete.
	(OV|OO)...
	Starting AA/AB first half-transformation.
	Sorting AA/AB half-transformed integrals.
	Starting BB first half-transformation.
	Sorting BB half-transformed integrals.
	First half integral transformation complete.
	Starting AA second half-transformation.
	Starting AB second half-transformation.
	Starting BB second half-transformation.
	Two-electron integral transformation complete.
	(OV|OV)...
	Starting AA second half-transformation.
	Starting AB second half-transformation.
	Starting BB second half-transformation.
	Two-electron integral transformation complete.

      * MP2 total energy                      = -681.411628479425872
      * CCSD total energy                     = -681.417356223590446
*** Psi4 exiting successfully. Buy a developer a beer!
