                               Psi4 1.4a3.dev88

  ==> Input File <==

--------------------------------------------------------------------------
# Any line starting with the # character is a comment line
memory 250000 mb
molecule molecule{
0 1
S          0.0000000000        0.0000000000        0.0391770833
H          0.9606903443        0.0000000000       -0.8857306917
H         -0.9606903443        0.0000000000       -0.8857306917
}

set {
  reference rhf
  basis aug-cc-pV(Q+d)Z
  scf_type OUT_OF_CORE
  freeze_core true
}

energy('ccsd(t)')
--------------------------------------------------------------------------

    Molecular point group: c2v

    Geometry (in Angstrom), charge = 0, multiplicity = 1:

       Center              X                  Y                   Z               Mass
    ------------   -----------------  -----------------  -----------------  -----------------
         S            0.000000000000    -0.000000000000     0.054851880277    31.972071174400
         H            0.960690344300     0.000000000000    -0.870055894723     1.007825032230
         H           -0.960690344300    -0.000000000000    -0.870055894723     1.007825032230

  Charge       = 0
  Multiplicity = 1
  Basis Set: AUG-CC-PV(Q+D)Z
    Blend: AUG-CC-PV(Q+D)Z

    Orbital Energies [Eh]
    ---------------------

    Doubly Occupied:

       1A1   -91.963746     2A1    -8.966920     1B1    -6.648518
       3A1    -6.647754     1B2    -6.646609     4A1    -0.982304
       2B1    -0.591156     5A1    -0.502440     2B2    -0.385290

  @RHF Final Energy:  -398.71939333336513

   => Energetics <=

    Nuclear Repulsion Energy =             12.9735163965347979
    One-Electron Energy =                -576.7163475114549556
    Two-Electron Energy =                 165.0234377815550317
    Total Energy =                       -398.7193933333651330

  Dipole Moment: [D]
     X:     0.0000      Y:     0.0000      Z:    -1.0695     Total:     1.0695

      * MP2 total energy                      = -398.927952248374822
      * CCSD total energy                     = -398.949370879864375
      * CCSD(T) total energy                  = -398.958971270792915
*** Psi4 exiting successfully. Buy a developer a beer!
