                               Psi4 1.2a1.dev939

  ==> Input File <==

--------------------------------------------------------------------------
# Any line starting with the # character is a comment line
memory 250000 mb
molecule molecule{
1 3
Cl          0.0000000000        0.0000000000        0.0000000000
}

set {
  reference uhf
  basis aug-cc-pv(6+d)z
  scf_type OUT_OF_CORE
  freeze_core true
}

energy('ccsd')
--------------------------------------------------------------------------

    Molecular point group: d2h
    Geometry (in Angstrom), charge = 1, multiplicity = 3:

       Center              X                  Y                   Z               Mass
    ------------   -----------------  -----------------  -----------------  -----------------
          CL          0.000000000000     0.000000000000     0.000000000000    34.968852682000

  Charge       = 1
  Multiplicity = 3
  Basis Set: AUG-CC-PV(6+D)Z
    Blend: AUG-CC-PV(6+D)Z

    Orbital Energies (a.u.)
    -----------------------

    Alpha Occupied:

       1Ag  -105.372969     2Ag   -11.087375     1B2u   -8.570161
       1B3u   -8.570161     1B1u   -8.543036     3Ag    -1.600374
       2B2u   -0.996430     2B3u   -0.996430     2B1u   -0.913009

    Alpha Virtual:

       4Ag    -0.126953     3B2u   -0.086725     3B3u   -0.086725
       3B1u   -0.080437     5Ag    -0.034627     1B1g   -0.034627
       1B3g   -0.017073     1B2g   -0.017073     6Ag    -0.010881
       4B3u    0.091263     4B2u    0.091263     4B1u    0.104607
       7Ag     0.191881     2B1g    0.191881     8Ag     0.194740
       2B3g    0.219936     2B2g    0.219936     9Ag     0.231133
       5B2u    0.302037     5B3u    0.302037     5B1u    0.309917
       1Au     0.309917     6B2u    0.314810     6B3u    0.314810
       6B1u    0.316479     7B2u    0.682888     7B3u    0.682888
       7B1u    0.715060     3B1g    0.754291    10Ag     0.754291
       3B3g    0.761812     3B2g    0.761812     4B1g    0.767194
      11Ag     0.767194     4B3g    0.770485     4B2g    0.770485
      12Ag     0.771596     5B1g    0.883515    13Ag     0.883515
       5B3g    0.915430     5B2g    0.915430    14Ag     0.927411
       8B2u    1.044249     8B3u    1.044249     8B1u    1.064608
       2Au     1.064608     9B2u    1.077333     9B3u    1.077333
       9B1u    1.081689    15Ag     1.281919    10B3u    2.073047
      10B2u    2.073047     6B1g    2.082192    16Ag     2.082192
       3Au     2.084666    10B1u    2.084666    11B3u    2.093880
      11B2u    2.093880     6B2g    2.099908     6B3g    2.099908
       4Au     2.100562    11B1u    2.100562    12B2u    2.104614
      12B3u    2.104614    12B1u    2.105971    17Ag     2.112636
       7B1g    2.112636     7B3g    2.120328     7B2g    2.120328
      18Ag     2.122906    13B2u    2.456095    13B3u    2.456095
      14B2u    2.499828    14B3u    2.499828    13B1u    2.507450
      19Ag     2.519100     8B1g    2.519100     5Au     2.531592
      14B1u    2.531592    15B2u    2.551988    15B3u    2.551988
       8B3g    2.555235     8B2g    2.555235    15B1u    2.559950
      20Ag     2.568360    21Ag     4.507492     9B1g    4.567751
      22Ag     4.567751     9B2g    4.595469     9B3g    4.595469
      10B1g    4.615394    23Ag     4.615394    10B3g    4.627399
      10B2g    4.627399    24Ag     4.631410    25Ag     4.778787
      11B1g    4.778787    11B3g    4.794796    11B2g    4.794796
      26Ag     4.808178    12B1g    4.808178    12B3g    4.818793
      12B2g    4.818793    13B1g    4.826504    27Ag     4.826504
      13B3g    4.831189    13B2g    4.831189    28Ag     4.832761
      16B3u    4.934795    16B2u    4.934795     6Au     4.956395
      16B1u    4.956395    17B2u    4.973479    17B3u    4.973479
       7Au     4.985844    17B1u    4.985844    18B2u    4.993331
      18B3u    4.993331    18B1u    4.995839    19B3u    5.546883
      19B2u    5.546883    19B1u    5.582479     8Au     5.582479
      20B2u    5.604358    20B3u    5.604358    20B1u    5.611751
      29Ag     5.896349    14B1g    5.896349    14B3g    5.935307
      14B2g    5.935307    30Ag     5.949450    21B2u    7.586772
      21B3u    7.586772    21B1u    7.638340    31Ag     9.396932
      15B1g    9.396932    15B3g    9.426923    15B2g    9.426923
      32Ag     9.448588    16B1g    9.448588    16B3g    9.461686
      16B2g    9.461686    33Ag     9.466069    34Ag    10.491368
      17B1g   10.491368    17B3g   10.514276    17B2g   10.514276
      35Ag    10.533295    18B1g   10.533295    18B3g   10.548265
      18B2g   10.548265    19B1g   10.559055    36Ag    10.559055
      19B3g   10.565570    19B2g   10.565570    37Ag    10.567748
      22B3u   10.741706    22B2u   10.741706    22B1u   10.768615
       9Au    10.768615    23B2u   10.789813    23B3u   10.789813
      10Au    10.805103    23B1u   10.805103    24B2u   10.814338
      24B3u   10.814338    24B1u   10.817426    25B3u   11.902938
      25B2u   11.902938    25B1u   11.932557    11Au    11.932557
      26B2u   11.950710    26B3u   11.950710    26B1u   11.956830
      38Ag    12.898308    20B1g   12.898308    20B3g   12.932236
      20B2g   12.932236    39Ag    12.943548    40Ag    14.396663
      27B2u   34.503675    27B3u   34.503675    27B1u   34.533096
      41Ag    38.640522    21B1g   38.640522    21B3g   38.661164
      21B2g   38.661164    42Ag    38.668144    43Ag   284.163266

    Beta Occupied:

       1Ag  -105.346439     2Ag   -11.062701     1B1u   -8.529977
       1B3u   -8.507622     1B2u   -8.507622     3Ag    -1.345165
       2B1u   -0.869490

    Beta Virtual:

       2B3u   -0.391405     2B2u   -0.391405     4Ag    -0.118870
       3B1u   -0.079433     3B3u   -0.076622     3B2u   -0.076622
       5Ag     0.002356     1B2g    0.002566     1B3g    0.002566
       1B1g    0.004626     6Ag     0.004626     4B1u    0.107948
       4B3u    0.118305     4B2u    0.118305     7Ag     0.214209
       8Ag     0.269019     2B2g    0.273497     2B3g    0.273497
       2B1g    0.293039     9Ag     0.293039     5B2u    0.309028
       5B3u    0.309028     1Au     0.314392     5B1u    0.314392
       6B3u    0.317689     6B2u    0.317689     6B1u    0.318793
       7B1u    0.724550     7B3u    0.740035     7B2u    0.740035
       3B1g    0.759175    10Ag     0.759175     3B3g    0.765352
       3B2g    0.765352     4B1g    0.769732    11Ag     0.769732
       4B2g    0.772328     4B3g    0.772328    12Ag     0.773187
      13Ag     0.956373     5B2g    0.957394     5B3g    0.957394
       5B1g    0.962022    14Ag     0.962022     8B2u    1.085079
       8B3u    1.085079     2Au     1.091852     8B1u    1.091852
       9B3u    1.095871     9B2u    1.095871     9B1u    1.097192
      15Ag     1.320586    10B3u    2.083803    10B2u    2.083803
       3Au     2.093099    10B1u    2.093099    11B2u    2.100397
      11B3u    2.100397     4Au     2.105646    11B1u    2.105646
      12B3u    2.108810    12B2u    2.108810     6B1g    2.108978
      16Ag     2.108978    12B1u    2.109867     6B2g    2.119821
       6B3g    2.119821     7B1g    2.127500    17Ag     2.127500
       7B2g    2.132082     7B3g    2.132082    18Ag     2.133605
      13B1u    2.523022    13B3u    2.524974    13B2u    2.524974
       8B1g    2.561529    19Ag     2.561529    14B2u    2.569348
      14B3u    2.569348     8B2g    2.578394     8B3g    2.578394
       5Au     2.578827    14B1u    2.578827    20Ag     2.583958
      15B3u    2.585059    15B2u    2.585059    15B1u    2.587189
      21Ag     4.546716     9B1g    4.617662    22Ag     4.617662
       9B2g    4.633125     9B3g    4.633125    10B1g    4.644155
      23Ag     4.644155    10B2g    4.650765    10B3g    4.650765
      24Ag     4.652968    25Ag     4.797803    11B1g    4.797803
      11B3g    4.810435    11B2g    4.810435    26Ag     4.820903
      12B1g    4.820903    12B3g    4.829131    12B2g    4.829131
      13B1g    4.835058    27Ag     4.835058    13B2g    4.838634
      13B3g    4.838634    28Ag     4.839830    16B3u    4.967463
      16B2u    4.967463     6Au     4.982325    16B1u    4.982325
      17B2u    4.993967    17B3u    4.993967     7Au     5.002326
      17B1u    5.002326    18B3u    5.007359    18B2u    5.007359
      18B1u    5.009040    19B3u    5.602314    19B2u    5.602314
       8Au     5.620284    19B1u    5.620284    20B2u    5.631135
      20B3u    5.631135    20B1u    5.634760    14B1g    5.930960
      29Ag     5.930960    14B3g    5.954582    14B2g    5.954582
      30Ag     5.962792    21B3u    7.639784    21B2u    7.639784
      21B1u    7.650342    31Ag     9.440197    15B1g    9.440197
      15B3g    9.459502    15B2g    9.459502    16B1g    9.473394
      32Ag     9.473394    16B3g    9.481770    16B2g    9.481770
      33Ag     9.484569    34Ag    10.524781    17B1g   10.524781
      17B3g   10.541915    17B2g   10.541915    35Ag    10.556088
      18B1g   10.556088    18B3g   10.567208    18B2g   10.567208
      19B1g   10.575203    36Ag    10.575203    19B3g   10.580021
      19B2g   10.580021    37Ag    10.581630    22B3u   10.782670
      22B2u   10.782670    22B1u   10.801257     9Au    10.801257
      23B2u   10.815845    23B3u   10.815845    10Au    10.826337
      23B1u   10.826337    24B2u   10.832660    24B3u   10.832660
      24B1u   10.834773    25B3u   11.925292    25B2u   11.925292
      11Au    11.947694    25B1u   11.947694    26B2u   11.961333
      26B3u   11.961333    26B1u   11.965914    20B1g   12.929979
      38Ag    12.929979    20B3g   12.950320    20B2g   12.950320
      39Ag    12.957020    40Ag    14.422357    27B1u   34.542244
      27B2u   34.542670    27B3u   34.542670    41Ag    38.677527
      21B1g   38.677527    21B2g   38.682968    21B3g   38.682968
      42Ag    38.684844    43Ag   284.173125

    Final Occupation by Irrep:
             Ag   B1g   B2g   B3g    Au   B1u   B2u   B3u
    DOCC [     3,    0,    0,    0,    0,    2,    1,    1 ]
    SOCC [     0,    0,    0,    0,    0,    0,    1,    1 ]

  Energy converged.

  @UHF Final Energy:  -459.05764321288922

   => Energetics <=

    Nuclear Repulsion Energy =              0.0000000000000000
    One-Electron Energy =                -627.2963291423358214
    Two-Electron Energy =                 168.2386859294466035
    PCM Polarization Energy =               0.0000000000000000
    Total Energy =                       -459.0576432128892179

    Alert: EFP and PCM quantities not currently incorporated into SCF psivars.
  UHF NO Occupations:
  HONO-2 :    3 Ag 1.9948199
  HONO-1 :    2B2u 1.0000000
  HONO-0 :    2B3u 1.0000000
  LUNO+0 :    4 Ag 0.0051801
  LUNO+1 :    3B1u 0.0005724
  LUNO+2 :    3B2u 0.0000063
  LUNO+3 :    3B3u 0.0000063

Properties will be evaluated at   0.000000,   0.000000,   0.000000 Bohr

Properties computed using the SCF density matrix

  Nuclear Dipole Moment: (a.u.)
     X:     0.0000      Y:     0.0000      Z:     0.0000

  Electronic Dipole Moment: (a.u.)
     X:     0.0000      Y:     0.0000      Z:     0.0000

  Dipole Moment: (a.u.)
     X:     0.0000      Y:     0.0000      Z:     0.0000     Total:     0.0000

  Dipole Moment: (Debye)
     X:     0.0000      Y:     0.0000      Z:     0.0000     Total:     0.0000

*** tstop() called on n412-071.vsc4.prov at Mon Nov  2 10:42:43 2020
Module time:
	user time   =     287.08 seconds =       4.78 minutes
	system time =       6.42 seconds =       0.11 minutes
	total time  =         89 seconds =       1.48 minutes
Total time:
	user time   =     287.08 seconds =       4.78 minutes
	system time =       6.42 seconds =       0.11 minutes
	total time  =         89 seconds =       1.48 minutes

*** tstart() called on n412-071.vsc4.prov
*** at Mon Nov  2 10:42:43 2020

	Wfn Parameters:
	--------------------
	Wavefunction         = CCSD
	Number of irreps     = 8
	Number of MOs        = 198
	Number of active MOs = 193
	AO-Basis             = NONE
	Semicanonical        = false
	Reference            = UHF
	Print Level          = 1

	IRREP	# MOs	# FZDC	# DOCC	# SOCC	# VIRT	# FZVR
	-----	-----	------	------	------	------	------
	 Ag	   43	    2	    1	    0	    40	    0
	 B1g	   21	    0	    0	    0	    21	    0
	 B2g	   21	    0	    0	    0	    21	    0
	 B3g	   21	    0	    0	    0	    21	    0
	 Au	   11	    0	    0	    0	    11	    0
	 B1u	   27	    1	    1	    0	    25	    0
	 B2u	   27	    1	    0	    1	    25	    0
	 B3u	   27	    1	    0	    1	    25	    0
	Transforming integrals...
	IWL integrals will be deleted.
	(OO|OO)...
	Presorting SO-basis two-electron integrals.
	Sorting File: SO Ints (nn|nn) nbuckets = 1
	Transforming the one-electron integrals and constructing Fock matrices
	Starting AA/AB first half-transformation.
	Sorting AA/AB half-transformed integrals.
	Starting BB first half-transformation.
	Sorting BB half-transformed integrals.
	First half integral transformation complete.
	Starting AA second half-transformation.
	Starting AB second half-transformation.
	Starting BB second half-transformation.
	Two-electron integral transformation complete.
	(OO|OV)...
	Starting AA second half-transformation.
	Starting AB second half-transformation.
	Starting BB second half-transformation.
	Two-electron integral transformation complete.
	(OO|VV)...
	Starting AA second half-transformation.
	Starting AB second half-transformation.
	Starting BB second half-transformation.
	Two-electron integral transformation complete.
	(OV|OO)...
	Starting AA/AB first half-transformation.
	Sorting AA/AB half-transformed integrals.
	Starting BB first half-transformation.
	Sorting BB half-transformed integrals.
	First half integral transformation complete.
	Starting AA second half-transformation.
	Starting AB second half-transformation.
	Starting BB second half-transformation.
	Two-electron integral transformation complete.
	(OV|OV)...
	Starting AA second half-transformation.
	Starting AB second half-transformation.
	Starting BB second half-transformation.
	Two-electron integral transformation complete.
	(OV|VV)...
	Starting AA second half-transformation.
	Starting AB second half-transformation.
	Starting BB second half-transformation.
	Two-electron integral transformation complete.
	(VV|OO)...
	Starting AA/AB first half-transformation.
	Sorting AA/AB half-transformed integrals.
	Starting BB first half-transformation.
	Sorting BB half-transformed integrals.
	First half integral transformation complete.
	Starting AA second half-transformation.
	Starting AB second half-transformation.
	Starting BB second half-transformation.
	Two-electron integral transformation complete.
	(VV|OV)...
	Starting AA second half-transformation.
	Starting AB second half-transformation.
	Starting BB second half-transformation.
	Two-electron integral transformation complete.
	(VV|VV)...
	Starting AA second half-transformation.
	Starting AB second half-transformation.
	Starting BB second half-transformation.
	Two-electron integral transformation complete.
	Frozen core energy     =   -444.74798557598888

	Size of irrep 0 of <AB|CD> integrals:      5.593 (MW) /     44.746 (MB)
	Size of irrep 1 of <AB|CD> integrals:      4.757 (MW) /     38.054 (MB)
	Size of irrep 2 of <AB|CD> integrals:      4.757 (MW) /     38.054 (MB)
	Size of irrep 3 of <AB|CD> integrals:      4.757 (MW) /     38.054 (MB)
	Size of irrep 4 of <AB|CD> integrals:      4.060 (MW) /     32.482 (MB)
	Size of irrep 5 of <AB|CD> integrals:      5.203 (MW) /     41.624 (MB)
	Size of irrep 6 of <AB|CD> integrals:      5.203 (MW) /     41.624 (MB)
	Size of irrep 7 of <AB|CD> integrals:      5.203 (MW) /     41.624 (MB)
	Total:                                    39.533 (MW) /    316.261 (MB)

	Size of irrep 0 of <ab|cd> integrals:      5.832 (MW) /     46.658 (MB)
	Size of irrep 1 of <ab|cd> integrals:      4.982 (MW) /     39.855 (MB)
	Size of irrep 2 of <ab|cd> integrals:      4.915 (MW) /     39.321 (MB)
	Size of irrep 3 of <ab|cd> integrals:      4.915 (MW) /     39.321 (MB)
	Size of irrep 4 of <ab|cd> integrals:      4.231 (MW) /     33.850 (MB)
	Size of irrep 5 of <ab|cd> integrals:      5.396 (MW) /     43.171 (MB)
	Size of irrep 6 of <ab|cd> integrals:      5.485 (MW) /     43.880 (MB)
	Size of irrep 7 of <ab|cd> integrals:      5.485 (MW) /     43.880 (MB)
	Total:                                    41.242 (MW) /    329.934 (MB)

	Size of irrep 0 of <Ab|Cd> integrals:     24.691 (MW) /    197.528 (MB)
	Size of irrep 1 of <Ab|Cd> integrals:     19.466 (MW) /    155.726 (MB)
	Size of irrep 2 of <Ab|Cd> integrals:     19.342 (MW) /    154.739 (MB)
	Size of irrep 3 of <Ab|Cd> integrals:     19.342 (MW) /    154.739 (MB)
	Size of irrep 4 of <Ab|Cd> integrals:     16.581 (MW) /    132.649 (MB)
	Size of irrep 5 of <Ab|Cd> integrals:     21.197 (MW) /    169.575 (MB)
	Size of irrep 6 of <Ab|Cd> integrals:     21.372 (MW) /    170.977 (MB)
	Size of irrep 7 of <Ab|Cd> integrals:     21.372 (MW) /    170.977 (MB)
	Total:                                   163.364 (MW) /   1306.910 (MB)

	Size of irrep 0 of <IA|BC> integrals:      0.566 (MW) /      4.525 (MB)
	Size of irrep 1 of <IA|BC> integrals:      0.358 (MW) /      2.861 (MB)
	Size of irrep 2 of <IA|BC> integrals:      0.358 (MW) /      2.861 (MB)
	Size of irrep 3 of <IA|BC> integrals:      0.358 (MW) /      2.861 (MB)
	Size of irrep 4 of <IA|BC> integrals:      0.298 (MW) /      2.386 (MB)
	Size of irrep 5 of <IA|BC> integrals:      0.488 (MW) /      3.905 (MB)
	Size of irrep 6 of <IA|BC> integrals:      0.488 (MW) /      3.905 (MB)
	Size of irrep 7 of <IA|BC> integrals:      0.488 (MW) /      3.905 (MB)
	Total:                                     3.401 (MW) /     27.211 (MB)

	Size of irrep 0 of <ia|bc> integrals:      0.326 (MW) /      2.611 (MB)
	Size of irrep 1 of <ia|bc> integrals:      0.143 (MW) /      1.143 (MB)
	Size of irrep 2 of <ia|bc> integrals:      0.208 (MW) /      1.667 (MB)
	Size of irrep 3 of <ia|bc> integrals:      0.208 (MW) /      1.667 (MB)
	Size of irrep 4 of <ia|bc> integrals:      0.132 (MW) /      1.053 (MB)
	Size of irrep 5 of <ia|bc> integrals:      0.302 (MW) /      2.416 (MB)
	Size of irrep 6 of <ia|bc> integrals:      0.220 (MW) /      1.761 (MB)
	Size of irrep 7 of <ia|bc> integrals:      0.220 (MW) /      1.761 (MB)
	Total:                                     1.760 (MW) /     14.080 (MB)

	Size of irrep 0 of <Ia|Bc> integrals:      0.581 (MW) /      4.651 (MB)
	Size of irrep 1 of <Ia|Bc> integrals:      0.371 (MW) /      2.965 (MB)
	Size of irrep 2 of <Ia|Bc> integrals:      0.365 (MW) /      2.920 (MB)
	Size of irrep 3 of <Ia|Bc> integrals:      0.365 (MW) /      2.920 (MB)
	Size of irrep 4 of <Ia|Bc> integrals:      0.301 (MW) /      2.411 (MB)
	Size of irrep 5 of <Ia|Bc> integrals:      0.493 (MW) /      3.941 (MB)
	Size of irrep 6 of <Ia|Bc> integrals:      0.499 (MW) /      3.994 (MB)
	Size of irrep 7 of <Ia|Bc> integrals:      0.499 (MW) /      3.994 (MB)
	Total:                                     3.475 (MW) /     27.797 (MB)

	Size of irrep 0 of <iA|bC> integrals:      0.323 (MW) /      2.584 (MB)
	Size of irrep 1 of <iA|bC> integrals:      0.141 (MW) /      1.129 (MB)
	Size of irrep 2 of <iA|bC> integrals:      0.202 (MW) /      1.618 (MB)
	Size of irrep 3 of <iA|bC> integrals:      0.202 (MW) /      1.618 (MB)
	Size of irrep 4 of <iA|bC> integrals:      0.130 (MW) /      1.042 (MB)
	Size of irrep 5 of <iA|bC> integrals:      0.299 (MW) /      2.394 (MB)
	Size of irrep 6 of <iA|bC> integrals:      0.213 (MW) /      1.701 (MB)
	Size of irrep 7 of <iA|bC> integrals:      0.213 (MW) /      1.701 (MB)
	Total:                                     1.724 (MW) /     13.789 (MB)

	Size of irrep 0 of tIjAb amplitudes:       0.010 (MW) /      0.080 (MB)
	Size of irrep 1 of tIjAb amplitudes:       0.000 (MW) /      0.000 (MB)
	Size of irrep 2 of tIjAb amplitudes:       0.004 (MW) /      0.035 (MB)
	Size of irrep 3 of tIjAb amplitudes:       0.004 (MW) /      0.035 (MB)
	Size of irrep 4 of tIjAb amplitudes:       0.000 (MW) /      0.000 (MB)
	Size of irrep 5 of tIjAb amplitudes:       0.009 (MW) /      0.074 (MB)
	Size of irrep 6 of tIjAb amplitudes:       0.005 (MW) /      0.037 (MB)
	Size of irrep 7 of tIjAb amplitudes:       0.005 (MW) /      0.037 (MB)
	Total:                                     0.037 (MW) /      0.298 (MB)

	Nuclear Rep. energy          =      0.00000000000000
	SCF energy                   =   -459.05764321288922
	One-electron energy          =    -21.89841936126179
	Two-electron (AA) energy     =      2.75370231238483
	Two-electron (BB) energy     =      0.42512315627625
	Two-electron (AB) energy     =      4.40993625570027
	Two-electron energy          =      7.58876172436135
	Reference energy             =   -459.05764321288933

*** tstop() called on n412-071.vsc4.prov at Mon Nov  2 10:43:56 2020
Module time:
	user time   =      22.34 seconds =       0.37 minutes
	system time =       9.84 seconds =       0.16 minutes
	total time  =         73 seconds =       1.22 minutes
Total time:
	user time   =     309.42 seconds =       5.16 minutes
	system time =      16.26 seconds =       0.27 minutes
	total time  =        162 seconds =       2.70 minutes

*** tstart() called on n412-071.vsc4.prov
*** at Mon Nov  2 10:43:56 2020

            **************************
            *                        *

      * MP2 total energy                      = -459.201820032497722
      * CCSD total energy                     = -459.222370820765491
*** Psi4 exiting successfully. Buy a developer a beer!
