                               Psi4 1.2a1.dev938

  ==> Input File <==

--------------------------------------------------------------------------
# Any line starting with the # character is a comment line
memory 250000 mb
molecule molecule{
1 3
Cl          0.0000000000        0.0000000000        0.0000000000
}

set {
  reference uhf
  basis aug-cc-pv(t+d)z
  scf_type OUT_OF_CORE
  freeze_core true
}

energy('ccsd')
--------------------------------------------------------------------------

    Molecular point group: d2h
    Geometry (in Angstrom), charge = 1, multiplicity = 3:

       Center              X                  Y                   Z               Mass
    ------------   -----------------  -----------------  -----------------  -----------------
          CL          0.000000000000     0.000000000000     0.000000000000    34.968852682000

  Charge       = 1
  Multiplicity = 3
  Basis Set: AUG-CC-PV(T+D)Z
    Blend: AUG-CC-PV(T+D)Z

    Orbital Energies (a.u.)
    -----------------------

    Alpha Occupied:

       1Ag  -105.373839     2Ag   -11.088003     1B1u   -8.569722
       1B3u   -8.569722     1B2u   -8.542382     3Ag    -1.600468
       2B3u   -0.996379     2B1u   -0.996379     2B2u   -0.912968

    Alpha Virtual:

       4Ag    -0.111644     3B3u   -0.076486     3B1u   -0.076486
       3B2u   -0.068077     1B2g   -0.000646     5Ag    -0.000646
       1B1g    0.025993     1B3g    0.025993     6Ag     0.035886
       4B3u    0.299141     4B1u    0.299141     4B2u    0.327826
       2B2g    0.432447     7Ag     0.432447     2B3g    0.467882
       2B1g    0.467882     8Ag     0.481462     9Ag     0.551122
       5B1u    0.798865     5B3u    0.798865     5B2u    0.820379
       1Au     0.820379     6B1u    0.833762     6B3u    0.833762
       6B2u    0.838327     3B2g    1.831415    10Ag     1.831415
       3B3g    1.870096     3B1g    1.870096    11Ag     1.884123
       7B1u    2.185446     7B3u    2.185446     7B2u    2.240273
       8B3u    2.548462     8B1u    2.548462     8B2u    2.585815
       2Au     2.585815     9B1u    2.609022     9B3u    2.609022
       9B2u    2.616917    12Ag     4.576192     4B2g    8.261690
      13Ag     8.261690     4B3g    8.291080     4B1g    8.291080
      14Ag     8.301130

    Beta Occupied:

       1Ag  -105.349090     2Ag   -11.063093     1B2u   -8.529659
       1B1u   -8.509145     1B3u   -8.509145     3Ag    -1.345560
       2B2u   -0.869219

    Beta Virtual:

       2B3u   -0.391972     2B1u   -0.391972     4Ag    -0.100543
       3B2u   -0.066565     3B3u   -0.061822     3B1u   -0.061822
       5Ag     0.061991     1B1g    0.064133     1B3g    0.064133
       1B2g    0.073511     6Ag     0.073511     4B2u    0.336784
       4B3u    0.359023     4B1u    0.359023     7Ag     0.524845
       2B3g    0.530532     2B1g    0.530532     2B2g    0.551009
       8Ag     0.551009     9Ag     0.592899     5B1u    0.839910
       5B3u    0.839910     5B2u    0.847543     1Au     0.847543
       6B1u    0.852015     6B3u    0.852015     6B2u    0.853482
       3B2g    1.892364    10Ag     1.892364     3B3g    1.903350
       3B1g    1.903350    11Ag     1.906895     7B2u    2.257188
       7B3u    2.274603     7B1u    2.274603     8B3u    2.636853
       8B1u    2.636853     8B2u    2.645685     2Au     2.645685
       9B1u    2.650751     9B3u    2.650751     9B2u    2.652403
      12Ag     4.619673     4B2g    8.290545    13Ag     8.290545
       4B3g    8.307382     4B1g    8.307382    14Ag     8.313010

    Final Occupation by Irrep:
             Ag   B1g   B2g   B3g    Au   B1u   B2u   B3u
    DOCC [     3,    0,    0,    0,    0,    1,    2,    1 ]
    SOCC [     0,    0,    0,    0,    0,    1,    0,    1 ]

  Energy converged.

  @UHF Final Energy:  -459.05338337520482

   => Energetics <=

    Nuclear Repulsion Energy =              0.0000000000000000
    One-Electron Energy =                -627.2819948206469007
    Two-Electron Energy =                 168.2286114454420556
    Total Energy =                       -459.0533833752048167

  UHF NO Occupations:
  HONO-2 :    3 Ag 1.9949098
  HONO-1 :    2B1u 1.0000000
  HONO-0 :    2B3u 1.0000000
  LUNO+0 :    4 Ag 0.0050902
  LUNO+1 :    3B2u 0.0005533
  LUNO+2 :    3B1u 0.0000032
  LUNO+3 :    3B3u 0.0000032

Properties will be evaluated at   0.000000,   0.000000,   0.000000 Bohr

Properties computed using the SCF density matrix

  Nuclear Dipole Moment: (a.u.)
     X:     0.0000      Y:     0.0000      Z:     0.0000

  Electronic Dipole Moment: (a.u.)
     X:     0.0000      Y:     0.0000      Z:     0.0000

  Dipole Moment: (a.u.)
     X:     0.0000      Y:     0.0000      Z:     0.0000     Total:     0.0000

  Dipole Moment: (Debye)
     X:     0.0000      Y:     0.0000      Z:     0.0000     Total:     0.0000

*** tstop() called on cqc05 at Thu Aug 20 20:11:12 2020
Module time:
	user time   =       0.56 seconds =       0.01 minutes
	system time =       0.02 seconds =       0.00 minutes
	total time  =          0 seconds =       0.00 minutes
Total time:
	user time   =       0.56 seconds =       0.01 minutes
	system time =       0.02 seconds =       0.00 minutes
	total time  =          0 seconds =       0.00 minutes

*** tstart() called on cqc05
*** at Thu Aug 20 20:11:12 2020

	Wfn Parameters:
	--------------------
	Wavefunction         = CCSD
	Number of irreps     = 8
	Number of MOs        = 55
	Number of active MOs = 50
	AO-Basis             = NONE
	Semicanonical        = false
	Reference            = UHF
	Print Level          = 1

	IRREP	# MOs	# FZDC	# DOCC	# SOCC	# VIRT	# FZVR
	-----	-----	------	------	------	------	------
	 Ag	   14	    2	    1	    0	    11	    0
	 B1g	   4	    0	    0	    0	    4	    0
	 B2g	   4	    0	    0	    0	    4	    0
	 B3g	   4	    0	    0	    0	    4	    0
	 Au	   2	    0	    0	    0	    2	    0
	 B1u	   9	    1	    0	    1	    7	    0
	 B2u	   9	    1	    1	    0	    7	    0
	 B3u	   9	    1	    0	    1	    7	    0
	Transforming integrals...
	IWL integrals will be deleted.
	(OO|OO)...
	Presorting SO-basis two-electron integrals.
	Sorting File: SO Ints (nn|nn) nbuckets = 1
	Transforming the one-electron integrals and constructing Fock matrices
	Starting AA/AB first half-transformation.
	Sorting AA/AB half-transformed integrals.
	Starting BB first half-transformation.
	Sorting BB half-transformed integrals.
	First half integral transformation complete.
	Starting AA second half-transformation.
	Starting AB second half-transformation.
	Starting BB second half-transformation.
	Two-electron integral transformation complete.
	(OO|OV)...
	Starting AA second half-transformation.
	Starting AB second half-transformation.
	Starting BB second half-transformation.
	Two-electron integral transformation complete.
	(OO|VV)...
	Starting AA second half-transformation.
	Starting AB second half-transformation.
	Starting BB second half-transformation.
	Two-electron integral transformation complete.
	(OV|OO)...
	Starting AA/AB first half-transformation.
	Sorting AA/AB half-transformed integrals.
	Starting BB first half-transformation.
	Sorting BB half-transformed integrals.
	First half integral transformation complete.
	Starting AA second half-transformation.
	Starting AB second half-transformation.
	Starting BB second half-transformation.
	Two-electron integral transformation complete.
	(OV|OV)...
	Starting AA second half-transformation.
	Starting AB second half-transformation.
	Starting BB second half-transformation.
	Two-electron integral transformation complete.
	(OV|VV)...
	Starting AA second half-transformation.
	Starting AB second half-transformation.
	Starting BB second half-transformation.
	Two-electron integral transformation complete.
	(VV|OO)...
	Starting AA/AB first half-transformation.
	Sorting AA/AB half-transformed integrals.
	Starting BB first half-transformation.
	Sorting BB half-transformed integrals.
	First half integral transformation complete.
	Starting AA second half-transformation.
	Starting AB second half-transformation.
	Starting BB second half-transformation.
	Two-electron integral transformation complete.
	(VV|OV)...
	Starting AA second half-transformation.
	Starting AB second half-transformation.
	Starting BB second half-transformation.
	Two-electron integral transformation complete.
	(VV|VV)...
	Starting AA second half-transformation.
	Starting AB second half-transformation.
	Starting BB second half-transformation.
	Two-electron integral transformation complete.
	Frozen core energy     =   -444.74512003773668

	Size of irrep 0 of <AB|CD> integrals:      0.019 (MW) /      0.150 (MB)
	Size of irrep 1 of <AB|CD> integrals:      0.015 (MW) /      0.121 (MB)
	Size of irrep 2 of <AB|CD> integrals:      0.015 (MW) /      0.121 (MB)
	Size of irrep 3 of <AB|CD> integrals:      0.015 (MW) /      0.121 (MB)
	Size of irrep 4 of <AB|CD> integrals:      0.011 (MW) /      0.090 (MB)
	Size of irrep 5 of <AB|CD> integrals:      0.020 (MW) /      0.159 (MB)
	Size of irrep 6 of <AB|CD> integrals:      0.020 (MW) /      0.159 (MB)
	Size of irrep 7 of <AB|CD> integrals:      0.020 (MW) /      0.159 (MB)
	Total:                                     0.135 (MW) /      1.080 (MB)

	Size of irrep 0 of <ab|cd> integrals:      0.023 (MW) /      0.182 (MB)
	Size of irrep 1 of <ab|cd> integrals:      0.017 (MW) /      0.139 (MB)
	Size of irrep 2 of <ab|cd> integrals:      0.019 (MW) /      0.152 (MB)
	Size of irrep 3 of <ab|cd> integrals:      0.017 (MW) /      0.139 (MB)
	Size of irrep 4 of <ab|cd> integrals:      0.013 (MW) /      0.104 (MB)
	Size of irrep 5 of <ab|cd> integrals:      0.024 (MW) /      0.195 (MB)
	Size of irrep 6 of <ab|cd> integrals:      0.022 (MW) /      0.178 (MB)
	Size of irrep 7 of <ab|cd> integrals:      0.024 (MW) /      0.195 (MB)
	Total:                                     0.161 (MW) /      1.284 (MB)

	Size of irrep 0 of <Ab|Cd> integrals:      0.112 (MW) /      0.892 (MB)
	Size of irrep 1 of <Ab|Cd> integrals:      0.065 (MW) /      0.520 (MB)
	Size of irrep 2 of <Ab|Cd> integrals:      0.068 (MW) /      0.541 (MB)
	Size of irrep 3 of <Ab|Cd> integrals:      0.065 (MW) /      0.520 (MB)
	Size of irrep 4 of <Ab|Cd> integrals:      0.048 (MW) /      0.387 (MB)
	Size of irrep 5 of <Ab|Cd> integrals:      0.088 (MW) /      0.706 (MB)
	Size of irrep 6 of <Ab|Cd> integrals:      0.084 (MW) /      0.673 (MB)
	Size of irrep 7 of <Ab|Cd> integrals:      0.088 (MW) /      0.706 (MB)
	Total:                                     0.618 (MW) /      4.945 (MB)

	Size of irrep 0 of <IA|BC> integrals:      0.010 (MW) /      0.082 (MB)
	Size of irrep 1 of <IA|BC> integrals:      0.005 (MW) /      0.039 (MB)
	Size of irrep 2 of <IA|BC> integrals:      0.005 (MW) /      0.039 (MB)
	Size of irrep 3 of <IA|BC> integrals:      0.005 (MW) /      0.039 (MB)
	Size of irrep 4 of <IA|BC> integrals:      0.003 (MW) /      0.024 (MB)
	Size of irrep 5 of <IA|BC> integrals:      0.007 (MW) /      0.059 (MB)
	Size of irrep 6 of <IA|BC> integrals:      0.007 (MW) /      0.059 (MB)
	Size of irrep 7 of <IA|BC> integrals:      0.007 (MW) /      0.059 (MB)
	Total:                                     0.050 (MW) /      0.400 (MB)

	Size of irrep 0 of <ia|bc> integrals:      0.006 (MW) /      0.050 (MB)
	Size of irrep 1 of <ia|bc> integrals:      0.003 (MW) /      0.025 (MB)
	Size of irrep 2 of <ia|bc> integrals:      0.002 (MW) /      0.013 (MB)
	Size of irrep 3 of <ia|bc> integrals:      0.003 (MW) /      0.025 (MB)
	Size of irrep 4 of <ia|bc> integrals:      0.001 (MW) /      0.011 (MB)
	Size of irrep 5 of <ia|bc> integrals:      0.004 (MW) /      0.030 (MB)
	Size of irrep 6 of <ia|bc> integrals:      0.005 (MW) /      0.043 (MB)
	Size of irrep 7 of <ia|bc> integrals:      0.004 (MW) /      0.030 (MB)
	Total:                                     0.029 (MW) /      0.228 (MB)

	Size of irrep 0 of <Ia|Bc> integrals:      0.011 (MW) /      0.091 (MB)
	Size of irrep 1 of <Ia|Bc> integrals:      0.005 (MW) /      0.043 (MB)
	Size of irrep 2 of <Ia|Bc> integrals:      0.006 (MW) /      0.046 (MB)
	Size of irrep 3 of <Ia|Bc> integrals:      0.005 (MW) /      0.043 (MB)
	Size of irrep 4 of <Ia|Bc> integrals:      0.003 (MW) /      0.025 (MB)
	Size of irrep 5 of <Ia|Bc> integrals:      0.008 (MW) /      0.064 (MB)
	Size of irrep 6 of <Ia|Bc> integrals:      0.008 (MW) /      0.060 (MB)
	Size of irrep 7 of <Ia|Bc> integrals:      0.008 (MW) /      0.064 (MB)
	Total:                                     0.054 (MW) /      0.436 (MB)

	Size of irrep 0 of <iA|bC> integrals:      0.006 (MW) /      0.048 (MB)
	Size of irrep 1 of <iA|bC> integrals:      0.003 (MW) /      0.022 (MB)
	Size of irrep 2 of <iA|bC> integrals:      0.002 (MW) /      0.012 (MB)
	Size of irrep 3 of <iA|bC> integrals:      0.003 (MW) /      0.022 (MB)
	Size of irrep 4 of <iA|bC> integrals:      0.001 (MW) /      0.011 (MB)
	Size of irrep 5 of <iA|bC> integrals:      0.003 (MW) /      0.026 (MB)
	Size of irrep 6 of <iA|bC> integrals:      0.005 (MW) /      0.042 (MB)
	Size of irrep 7 of <iA|bC> integrals:      0.003 (MW) /      0.026 (MB)
	Total:                                     0.026 (MW) /      0.210 (MB)

	Size of irrep 0 of tIjAb amplitudes:       0.001 (MW) /      0.005 (MB)
	Size of irrep 1 of tIjAb amplitudes:       0.000 (MW) /      0.002 (MB)
	Size of irrep 2 of tIjAb amplitudes:       0.000 (MW) /      0.000 (MB)
	Size of irrep 3 of tIjAb amplitudes:       0.000 (MW) /      0.002 (MB)
	Size of irrep 4 of tIjAb amplitudes:       0.000 (MW) /      0.000 (MB)
	Size of irrep 5 of tIjAb amplitudes:       0.000 (MW) /      0.002 (MB)
	Size of irrep 6 of tIjAb amplitudes:       0.001 (MW) /      0.005 (MB)
	Size of irrep 7 of tIjAb amplitudes:       0.000 (MW) /      0.002 (MB)
	Total:                                     0.002 (MW) /      0.019 (MB)

	Nuclear Rep. energy          =      0.00000000000000
	SCF energy                   =   -459.05338337520482
	One-electron energy          =    -21.89555380414300
	Two-electron (AA) energy     =      2.75319938880725
	Two-electron (BB) energy     =      0.42505056408782
	Two-electron (AB) energy     =      4.40904051377988
	Two-electron energy          =      7.58729046667495
	Reference energy             =   -459.05338337520476

*** tstop() called on cqc05 at Thu Aug 20 20:11:12 2020
Module time:
	user time   =       0.15 seconds =       0.00 minutes
	system time =       0.06 seconds =       0.00 minutes
	total time  =          0 seconds =       0.00 minutes
Total time:
	user time   =       0.71 seconds =       0.01 minutes
	system time =       0.08 seconds =       0.00 minutes
	total time  =          0 seconds =       0.00 minutes

*** tstart() called on cqc05
*** at Thu Aug 20 20:11:12 2020

            **************************
            *                        *
            *        CCENERGY        *
            *                        *
            **************************

    Nuclear Rep. energy (wfn)     =    0.000000000000000
    SCF energy          (wfn)     = -459.053383375204817
    Reference energy    (file100) = -459.053383375204760

    Input parameters:
    -----------------
    Wave function   =     CCSD
    Reference wfn   =     UHF
    Brueckner       =     No
    Memory (Mbytes) =     250000.0
    Maxiter         =     50
    R_Convergence   =     1.0e-07
    E_Convergence   =     1.0e-06
    Restart         =     Yes
    DIIS            =     Yes
    AO Basis        =     NONE
    ABCD            =     NEW
    Cache Level     =     2
    Cache Type      =     LRU
    Print Level     =     1
    Num. of threads =     4
    # Amps to Print =     10
    Print MP2 Amps? =     No
    Analyze T2 Amps =     No
    Print Pair Ener =     No
    Local CC        =     No
    SCS-MP2         =     False
    SCSN-MP2        =     False
    SCS-CCSD        =     False

MP2 correlation energy -0.1253554515984576
                Solving CC Amplitude Equations
                ------------------------------
  Iter             Energy              RMS        T1Diag      D1Diag    New D1Diag    D2Diag
  ----     ---------------------    ---------   ----------  ----------  ----------   --------
     0        -0.125355451598458    0.000e+00    0.000000    0.000000    0.000000    0.000000
     1        -0.144152931557039    4.290e-02    0.007330    0.000000    0.000000    0.000000
     2        -0.150079011633287    1.446e-02    0.011576    0.000000    0.000000    0.000000
     3        -0.150341823236754    2.906e-03    0.012572    0.000000    0.000000    0.000000
     4        -0.150342763612194    3.866e-04    0.012628    0.000000    0.000000    0.000000
     5        -0.150339912945400    8.373e-05    0.012621    0.000000    0.000000    0.000000
     6        -0.150340887958071    2.283e-05    0.012619    0.000000    0.000000    0.000000
     7        -0.150341163402627    5.260e-06    0.012619    0.000000    0.000000    0.000000
     8        -0.150341069814447    1.552e-06    0.012619    0.000000    0.000000    0.000000
     9        -0.150341080224342    3.822e-07    0.012619    0.000000    0.000000    0.000000
    10        -0.150341079260185    8.825e-08    0.012619    0.000000    0.000000    0.000000
    10        -0.150341079260185    8.825e-08    0.012619    0.000000    0.000000    0.000000

    Iterations converged.

    CCSD corr. energy   =   -0.150341079260185
    PPL corr. energy    =    0.038837534544851
    OS PPL corr. energy =    0.032441558321839
    SS PPL corr. energy =    0.006395976223012
    Largest TIA Amplitudes:
              0   2         0.0055847628
              0   4        -0.0046165604
              2  33         0.0042537156
              2  32        -0.0028633802
              0   5         0.0023883207
              2  36        -0.0015601413
              1  29        -0.0012161403
              3  43        -0.0012161403
              2  35        -0.0010245765
              0   0        -0.0010025641

    Largest Tia Amplitudes:
              0   1        -0.0206973871
              0   3        -0.0184469921
              0   5         0.0054762746
              1  36         0.0041040989
              0   7        -0.0035599848
              0   0        -0.0034127205
              1  34         0.0028357534
              1  39        -0.0026557995
              1  33        -0.0017313445
              1  37        -0.0016213375

    Largest TIJAB Amplitudes:
      3   1  15   1        -0.0317932787
      3   2  11   2        -0.0275751352
      2   1  19   2         0.0275751352
      3   1  15   3        -0.0245921293
      3   1  16   1        -0.0245921293
      3   2  11   4         0.0234818721
      2   1  19   4        -0.0234818721
      3   2  12   2        -0.0229026863
      2   1  20   2         0.0229026863
      3   2  12   4         0.0228533125

    Largest Tijab Amplitudes:

      * MP2 total energy                      = -459.178738826803226
      * CCSD total energy                     = -459.203724454464918
*** Psi4 exiting successfully. Buy a developer a beer!
