                               Psi4 1.2a1.dev938

  ==> Input File <==

--------------------------------------------------------------------------
# Any line starting with the # character is a comment line
memory 250000 mb
molecule molecule{
1 3
Cl          0.0000000000        0.0000000000        0.0000000000
}

set {
  reference uhf
  basis aug-cc-pv(q+d)z
  scf_type OUT_OF_CORE
  freeze_core true
}

energy('ccsd')
--------------------------------------------------------------------------

    Molecular point group: d2h
    Geometry (in Angstrom), charge = 1, multiplicity = 3:

       Center              X                  Y                   Z               Mass
    ------------   -----------------  -----------------  -----------------  -----------------
          CL          0.000000000000     0.000000000000     0.000000000000    34.968852682000

  Charge       = 1
  Multiplicity = 3
  Basis Set: AUG-CC-PV(Q+D)Z
    Blend: AUG-CC-PV(Q+D)Z

    Orbital Energies (a.u.)
    -----------------------

    Alpha Occupied:

       1Ag  -105.373365     2Ag   -11.087945     1B3u   -8.570132
       1B1u   -8.570132     1B2u   -8.542921     3Ag    -1.600383
       2B3u   -0.996414     2B1u   -0.996414     2B2u   -0.912931

    Alpha Virtual:

       4Ag    -0.120620     3B3u   -0.081473     3B1u   -0.081473
       3B2u   -0.074077     5Ag    -0.025279     1B2g   -0.025279
       1B1g   -0.005112     1B3g   -0.005112     6Ag     0.002170
       4B3u    0.191458     4B1u    0.191458     4B2u    0.212412
       7Ag     0.252002     2B2g    0.252002     2B1g    0.282218
       2B3g    0.282218     8Ag     0.294254     9Ag     0.326315
       5B3u    0.503261     5B1u    0.503261     5B2u    0.516574
       1Au     0.516574     6B3u    0.524883     6B1u    0.524883
       6B2u    0.527725    10Ag     1.152046     3B2g    1.152046
       3B1g    1.187717     3B3g    1.187717    11Ag     1.201208
       7B3u    1.334667     7B1u    1.334667     7B2u    1.383289
       4B2g    1.479213    12Ag     1.479213     4B1g    1.495466
       4B3g    1.495466    13Ag     1.507421     5B2g    1.507421
       5B1g    1.514748     5B3g    1.514748    14Ag     1.517219
       8B3u    1.610766     8B1u    1.610766     8B2u    1.640441
       2Au     1.640441     9B3u    1.659110     9B1u    1.659110
       9B2u    1.665541    15Ag     2.201611    16Ag     3.256454
       6B2g    3.256454     6B1g    3.294217     6B3g    3.294217
      17Ag     3.308381    10B3u    4.174727    10B1u    4.174727
       7B2g    4.204715    18Ag     4.204715    10B2u    4.212107
       3Au     4.212107     7B1g    4.235027     7B3g    4.235027
      11B3u    4.235167    11B1u    4.235167    11B2u    4.242978
      19Ag     4.257221     8B2g    4.257221     8B1g    4.270774
       8B3g    4.270774    20Ag     4.275334    12B3u    5.579466
      12B1u    5.579466    12B2u    5.634689    21Ag    10.846198
       9B2g   10.846198     9B1g   10.875396     9B3g   10.875396
      22Ag    10.885325    23Ag    22.119809

    Beta Occupied:

       1Ag  -105.348369     2Ag   -11.062830     1B2u   -8.530017
       1B1u   -8.508752     1B3u   -8.508752     3Ag    -1.345307
       2B2u   -0.869452

    Beta Virtual:

       2B1u   -0.391604     2B3u   -0.391604     4Ag    -0.111353
       3B2u   -0.072827     3B1u   -0.069032     3B3u   -0.069032
       5Ag     0.018837     1B3g    0.019460     1B1g    0.019460
       1B2g    0.023158     6Ag     0.023158     4B2u    0.218271
       4B1u    0.234866     4B3u    0.234866     7Ag     0.332653
       2B3g    0.339803     2B1g    0.339803     8Ag     0.357249
       2B2g    0.360892     9Ag     0.360892     5B1u    0.521337
       5B3u    0.521337     1Au     0.528337     5B2u    0.528337
       6B1u    0.532589     6B3u    0.532589     6B2u    0.534000
       3B2g    1.229334    10Ag     1.229334     3B3g    1.229347
       3B1g    1.229347    11Ag     1.229586     7B2u    1.398550
       7B1u    1.414677     7B3u    1.414677     4B2g    1.501415
      12Ag     1.501415     4B3g    1.511866     4B1g    1.511866
       5B2g    1.519444    13Ag     1.519444     5B3g    1.524039
       5B1g    1.524039    14Ag     1.525579     8B1u    1.678938
       8B3u    1.678938     2Au     1.686321     8B2u    1.686321
       9B1u    1.690681     9B3u    1.690681     9B2u    1.692107
      15Ag     2.250750     6B2g    3.297062    16Ag     3.297062
       6B3g    3.316691     6B1g    3.316691    17Ag     3.323290
      10B1u    4.248011    10B3u    4.248011     3Au     4.261860
      10B2u    4.261860     7B2g    4.265516    18Ag     4.265516
      11B1u    4.270097    11B3u    4.270097    11B2u    4.272829
       7B3g    4.280618     7B1g    4.280618     8B2g    4.291455
      19Ag     4.291455     8B3g    4.297974     8B1g    4.297974
      20Ag     4.300150    12B1u    5.642592    12B3u    5.642592
      12B2u    5.648534    21Ag    10.877420     9B2g   10.877420
       9B3g   10.893201     9B1g   10.893201    22Ag    10.898491
      23Ag    22.149013

    Final Occupation by Irrep:
             Ag   B1g   B2g   B3g    Au   B1u   B2u   B3u
    DOCC [     3,    0,    0,    0,    0,    1,    2,    1 ]
    SOCC [     0,    0,    0,    0,    0,    1,    0,    1 ]

  Energy converged.

  @UHF Final Energy:  -459.05685686712314

   => Energetics <=

    Nuclear Repulsion Energy =              0.0000000000000000
    One-Electron Energy =                -627.2895964425605371
    Two-Electron Energy =                 168.2327395754374209
    PCM Polarization Energy =               0.0000000000000000
    Total Energy =                       -459.0568568671230878

    Alert: EFP and PCM quantities not currently incorporated into SCF psivars.
  UHF NO Occupations:
  HONO-2 :    3 Ag 1.9948511
  HONO-1 :    2B3u 1.0000000
  HONO-0 :    2B1u 1.0000000
  LUNO+0 :    4 Ag 0.0051489
  LUNO+1 :    3B2u 0.0005683
  LUNO+2 :    3B1u 0.0000046
  LUNO+3 :    3B3u 0.0000046

Properties will be evaluated at   0.000000,   0.000000,   0.000000 Bohr

Properties computed using the SCF density matrix

  Nuclear Dipole Moment: (a.u.)
     X:     0.0000      Y:     0.0000      Z:     0.0000

  Electronic Dipole Moment: (a.u.)
     X:     0.0000      Y:     0.0000      Z:     0.0000

  Dipole Moment: (a.u.)
     X:     0.0000      Y:     0.0000      Z:     0.0000     Total:     0.0000

  Dipole Moment: (Debye)
     X:     0.0000      Y:     0.0000      Z:     0.0000     Total:     0.0000

*** tstop() called on cqc05 at Thu Aug 20 22:41:54 2020
Module time:
	user time   =       1.94 seconds =       0.03 minutes
	system time =       0.04 seconds =       0.00 minutes
	total time  =          2 seconds =       0.03 minutes
Total time:
	user time   =       1.94 seconds =       0.03 minutes
	system time =       0.04 seconds =       0.00 minutes
	total time  =          2 seconds =       0.03 minutes

*** tstart() called on cqc05
*** at Thu Aug 20 22:41:54 2020

	Wfn Parameters:
	--------------------
	Wavefunction         = CCSD
	Number of irreps     = 8
	Number of MOs        = 89
	Number of active MOs = 84
	AO-Basis             = NONE
	Semicanonical        = false
	Reference            = UHF
	Print Level          = 1

	IRREP	# MOs	# FZDC	# DOCC	# SOCC	# VIRT	# FZVR
	-----	-----	------	------	------	------	------
	 Ag	   23	    2	    1	    0	    20	    0
	 B1g	   9	    0	    0	    0	    9	    0
	 B2g	   9	    0	    0	    0	    9	    0
	 B3g	   9	    0	    0	    0	    9	    0
	 Au	   3	    0	    0	    0	    3	    0
	 B1u	   12	    1	    0	    1	    10	    0
	 B2u	   12	    1	    1	    0	    10	    0
	 B3u	   12	    1	    0	    1	    10	    0
	Transforming integrals...
	IWL integrals will be deleted.
	(OO|OO)...
	Presorting SO-basis two-electron integrals.
	Sorting File: SO Ints (nn|nn) nbuckets = 1
	Transforming the one-electron integrals and constructing Fock matrices
	Starting AA/AB first half-transformation.
	Sorting AA/AB half-transformed integrals.
	Starting BB first half-transformation.
	Sorting BB half-transformed integrals.
	First half integral transformation complete.
	Starting AA second half-transformation.
	Starting AB second half-transformation.
	Starting BB second half-transformation.
	Two-electron integral transformation complete.
	(OO|OV)...
	Starting AA second half-transformation.
	Starting AB second half-transformation.
	Starting BB second half-transformation.
	Two-electron integral transformation complete.
	(OO|VV)...
	Starting AA second half-transformation.
	Starting AB second half-transformation.
	Starting BB second half-transformation.
	Two-electron integral transformation complete.
	(OV|OO)...
	Starting AA/AB first half-transformation.
	Sorting AA/AB half-transformed integrals.
	Starting BB first half-transformation.
	Sorting BB half-transformed integrals.
	First half integral transformation complete.
	Starting AA second half-transformation.
	Starting AB second half-transformation.
	Starting BB second half-transformation.
	Two-electron integral transformation complete.
	(OV|OV)...
	Starting AA second half-transformation.
	Starting AB second half-transformation.
	Starting BB second half-transformation.
	Two-electron integral transformation complete.
	(OV|VV)...
	Starting AA second half-transformation.
	Starting AB second half-transformation.
	Starting BB second half-transformation.
	Two-electron integral transformation complete.
	(VV|OO)...
	Starting AA/AB first half-transformation.
	Sorting AA/AB half-transformed integrals.
	Starting BB first half-transformation.
	Sorting BB half-transformed integrals.
	First half integral transformation complete.
	Starting AA second half-transformation.
	Starting AB second half-transformation.
	Starting BB second half-transformation.
	Two-electron integral transformation complete.
	(VV|OV)...
	Starting AA second half-transformation.
	Starting AB second half-transformation.
	Starting BB second half-transformation.
	Two-electron integral transformation complete.
	(VV|VV)...
	Starting AA second half-transformation.
	Starting AB second half-transformation.
	Starting BB second half-transformation.
	Two-electron integral transformation complete.
	Frozen core energy     =   -444.74759774443959

	Size of irrep 0 of <AB|CD> integrals:      0.190 (MW) /      1.521 (MB)
	Size of irrep 1 of <AB|CD> integrals:      0.153 (MW) /      1.223 (MB)
	Size of irrep 2 of <AB|CD> integrals:      0.153 (MW) /      1.223 (MB)
	Size of irrep 3 of <AB|CD> integrals:      0.153 (MW) /      1.223 (MB)
	Size of irrep 4 of <AB|CD> integrals:      0.109 (MW) /      0.871 (MB)
	Size of irrep 5 of <AB|CD> integrals:      0.166 (MW) /      1.325 (MB)
	Size of irrep 6 of <AB|CD> integrals:      0.166 (MW) /      1.325 (MB)
	Size of irrep 7 of <AB|CD> integrals:      0.166 (MW) /      1.325 (MB)
	Total:                                     1.255 (MW) /     10.037 (MB)

	Size of irrep 0 of <ab|cd> integrals:      0.208 (MW) /      1.663 (MB)
	Size of irrep 1 of <ab|cd> integrals:      0.163 (MW) /      1.306 (MB)
	Size of irrep 2 of <ab|cd> integrals:      0.170 (MW) /      1.358 (MB)
	Size of irrep 3 of <ab|cd> integrals:      0.163 (MW) /      1.306 (MB)
	Size of irrep 4 of <ab|cd> integrals:      0.121 (MW) /      0.969 (MB)
	Size of irrep 5 of <ab|cd> integrals:      0.190 (MW) /      1.521 (MB)
	Size of irrep 6 of <ab|cd> integrals:      0.181 (MW) /      1.445 (MB)
	Size of irrep 7 of <ab|cd> integrals:      0.190 (MW) /      1.521 (MB)
	Total:                                     1.386 (MW) /     11.088 (MB)

	Size of irrep 0 of <Ab|Cd> integrals:      0.945 (MW) /      7.558 (MB)
	Size of irrep 1 of <Ab|Cd> integrals:      0.632 (MW) /      5.056 (MB)
	Size of irrep 2 of <Ab|Cd> integrals:      0.643 (MW) /      5.146 (MB)
	Size of irrep 3 of <Ab|Cd> integrals:      0.632 (MW) /      5.056 (MB)
	Size of irrep 4 of <Ab|Cd> integrals:      0.460 (MW) /      3.677 (MB)
	Size of irrep 5 of <Ab|Cd> integrals:      0.711 (MW) /      5.685 (MB)
	Size of irrep 6 of <Ab|Cd> integrals:      0.692 (MW) /      5.538 (MB)
	Size of irrep 7 of <Ab|Cd> integrals:      0.711 (MW) /      5.685 (MB)
	Total:                                     5.425 (MW) /     43.402 (MB)

	Size of irrep 0 of <IA|BC> integrals:      0.048 (MW) /      0.381 (MB)
	Size of irrep 1 of <IA|BC> integrals:      0.025 (MW) /      0.200 (MB)
	Size of irrep 2 of <IA|BC> integrals:      0.025 (MW) /      0.200 (MB)
	Size of irrep 3 of <IA|BC> integrals:      0.025 (MW) /      0.200 (MB)
	Size of irrep 4 of <IA|BC> integrals:      0.020 (MW) /      0.158 (MB)
	Size of irrep 5 of <IA|BC> integrals:      0.039 (MW) /      0.313 (MB)
	Size of irrep 6 of <IA|BC> integrals:      0.039 (MW) /      0.313 (MB)
	Size of irrep 7 of <IA|BC> integrals:      0.039 (MW) /      0.313 (MB)
	Total:                                     0.260 (MW) /      2.078 (MB)

	Size of irrep 0 of <ia|bc> integrals:      0.030 (MW) /      0.239 (MB)
	Size of irrep 1 of <ia|bc> integrals:      0.016 (MW) /      0.129 (MB)
	Size of irrep 2 of <ia|bc> integrals:      0.010 (MW) /      0.079 (MB)
	Size of irrep 3 of <ia|bc> integrals:      0.016 (MW) /      0.129 (MB)
	Size of irrep 4 of <ia|bc> integrals:      0.008 (MW) /      0.067 (MB)
	Size of irrep 5 of <ia|bc> integrals:      0.017 (MW) /      0.140 (MB)
	Size of irrep 6 of <ia|bc> integrals:      0.025 (MW) /      0.204 (MB)
	Size of irrep 7 of <ia|bc> integrals:      0.017 (MW) /      0.140 (MB)
	Total:                                     0.141 (MW) /      1.126 (MB)

	Size of irrep 0 of <Ia|Bc> integrals:      0.051 (MW) /      0.404 (MB)
	Size of irrep 1 of <Ia|Bc> integrals:      0.026 (MW) /      0.210 (MB)
	Size of irrep 2 of <Ia|Bc> integrals:      0.027 (MW) /      0.218 (MB)
	Size of irrep 3 of <Ia|Bc> integrals:      0.026 (MW) /      0.210 (MB)
	Size of irrep 4 of <Ia|Bc> integrals:      0.020 (MW) /      0.163 (MB)
	Size of irrep 5 of <Ia|Bc> integrals:      0.041 (MW) /      0.330 (MB)
	Size of irrep 6 of <Ia|Bc> integrals:      0.040 (MW) /      0.319 (MB)
	Size of irrep 7 of <Ia|Bc> integrals:      0.041 (MW) /      0.330 (MB)
	Total:                                     0.273 (MW) /      2.185 (MB)

	Size of irrep 0 of <iA|bC> integrals:      0.029 (MW) /      0.233 (MB)
	Size of irrep 1 of <iA|bC> integrals:      0.015 (MW) /      0.121 (MB)
	Size of irrep 2 of <iA|bC> integrals:      0.010 (MW) /      0.077 (MB)
	Size of irrep 3 of <iA|bC> integrals:      0.015 (MW) /      0.121 (MB)
	Size of irrep 4 of <iA|bC> integrals:      0.008 (MW) /      0.065 (MB)
	Size of irrep 5 of <iA|bC> integrals:      0.016 (MW) /      0.128 (MB)
	Size of irrep 6 of <iA|bC> integrals:      0.025 (MW) /      0.200 (MB)
	Size of irrep 7 of <iA|bC> integrals:      0.016 (MW) /      0.128 (MB)
	Total:                                     0.134 (MW) /      1.073 (MB)

	Size of irrep 0 of tIjAb amplitudes:       0.002 (MW) /      0.016 (MB)
	Size of irrep 1 of tIjAb amplitudes:       0.001 (MW) /      0.006 (MB)
	Size of irrep 2 of tIjAb amplitudes:       0.000 (MW) /      0.000 (MB)
	Size of irrep 3 of tIjAb amplitudes:       0.001 (MW) /      0.006 (MB)
	Size of irrep 4 of tIjAb amplitudes:       0.000 (MW) /      0.000 (MB)
	Size of irrep 5 of tIjAb amplitudes:       0.001 (MW) /      0.007 (MB)
	Size of irrep 6 of tIjAb amplitudes:       0.002 (MW) /      0.013 (MB)
	Size of irrep 7 of tIjAb amplitudes:       0.001 (MW) /      0.007 (MB)
	Total:                                     0.007 (MW) /      0.055 (MB)

	Nuclear Rep. energy          =      0.00000000000000
	SCF energy                   =   -459.05685686712314
	One-electron energy          =    -21.89761645573009
	Two-electron (AA) energy     =      2.75347999550236
	Two-electron (BB) energy     =      0.42513310990304
	Two-electron (AB) energy     =      4.40974422764149
	Two-electron energy          =      7.58835733304690
	Reference energy             =   -459.05685686712280

*** tstop() called on cqc05 at Thu Aug 20 22:41:55 2020
Module time:
	user time   =       0.64 seconds =       0.01 minutes
	system time =       0.32 seconds =       0.01 minutes
	total time  =          1 seconds =       0.02 minutes
Total time:
	user time   =       2.58 seconds =       0.04 minutes
	system time =       0.36 seconds =       0.01 minutes
	total time  =          3 seconds =       0.05 minutes

*** tstart() called on cqc05
*** at Thu Aug 20 22:41:55 2020

            **************************
            *                        *
            *        CCENERGY        *
            *                        *
            **************************

    Nuclear Rep. energy (wfn)     =    0.000000000000000
    SCF energy          (wfn)     = -459.056856867123145
    Reference energy    (file100) = -459.056856867122804

    Input parameters:
    -----------------
    Wave function   =     CCSD
    Reference wfn   =     UHF
    Brueckner       =     No
    Memory (Mbytes) =     250000.0
    Maxiter         =     50
    R_Convergence   =     1.0e-07
    E_Convergence   =     1.0e-06
    Restart         =     Yes
    DIIS            =     Yes
    AO Basis        =     NONE
    ABCD            =     NEW
    Cache Level     =     2
    Cache Type      =     LRU
    Print Level     =     1
    Num. of threads =     4
    # Amps to Print =     10
    Print MP2 Amps? =     No
    Analyze T2 Amps =     No
    Print Pair Ener =     No
    Local CC        =     No
    SCS-MP2         =     False
    SCSN-MP2        =     False
    SCS-CCSD        =     False

MP2 correlation energy -0.1365044675626614
                Solving CC Amplitude Equations
                ------------------------------
  Iter             Energy              RMS        T1Diag      D1Diag    New D1Diag    D2Diag
  ----     ---------------------    ---------   ----------  ----------  ----------   --------
     0        -0.136504467562661    0.000e+00    0.000000    0.000000    0.000000    0.000000
     1        -0.153854928744707    4.166e-02    0.007818    0.000000    0.000000    0.000000
     2        -0.159559738884043    1.413e-02    0.012016    0.000000    0.000000    0.000000
     3        -0.159801794216986    2.825e-03    0.013018    0.000000    0.000000    0.000000
     4        -0.159798524297712    4.063e-04    0.013070    0.000000    0.000000    0.000000
     5        -0.159795259850598    9.730e-05    0.013068    0.000000    0.000000    0.000000
     6        -0.159796135572884    2.537e-05    0.013065    0.000000    0.000000    0.000000
     7        -0.159796412732968    5.707e-06    0.013065    0.000000    0.000000    0.000000
     8        -0.159796382603421    1.623e-06    0.013065    0.000000    0.000000    0.000000
     9        -0.159796373386227    4.513e-07    0.013065    0.000000    0.000000    0.000000
    10        -0.159796374968184    1.162e-07    0.013065    0.000000    0.000000    0.000000
    11        -0.159796373988575    2.522e-08    0.013065    0.000000    0.000000    0.000000
    11        -0.159796373988575    2.522e-08    0.013065    0.000000    0.000000    0.000000

    Iterations converged.

    CCSD corr. energy   =   -0.159796373988575
    PPL corr. energy    =    0.043682915705750
    OS PPL corr. energy =    0.036891997134383
    SS PPL corr. energy =    0.006790918571367
    Largest TIA Amplitudes:
              0   4         0.0059390999
              2  61         0.0050923034
              0   2        -0.0050779012
              2  60        -0.0033235850
              2  64        -0.0029028775
              0   7        -0.0024163473
              0   5        -0.0021226814
              3  74         0.0016403163
              1  54         0.0016403162
              0  11         0.0015318508

      * MP2 total energy                      = -459.193361334685449
      * CCSD total energy                     = -459.216653241111374
*** Psi4 exiting successfully. Buy a developer a beer!
