                               Psi4 1.2a1.dev938

  ==> Input File <==

--------------------------------------------------------------------------
# Any line starting with the # character is a comment line
memory 250000 mb
molecule molecule{
-1 4
Si          0.0000000000        0.0000000000        0.0000000000
}

set {
  reference uhf
  basis aug-cc-pv(d+d)z
  scf_type OUT_OF_CORE
  freeze_core true
}

energy('ccsd')
--------------------------------------------------------------------------

    Molecular point group: d2h
    Geometry (in Angstrom), charge = -1, multiplicity = 4:

       Center              X                  Y                   Z               Mass
    ------------   -----------------  -----------------  -----------------  -----------------
          SI          0.000000000000     0.000000000000     0.000000000000    27.976926532460

  Charge       = -1
  Multiplicity = 4
  Basis Set: AUG-CC-PV(D+D)Z
    Blend: AUG-CC-PV(D+D)Z

    Orbital Energies (a.u.)
    -----------------------

    Alpha Occupied:

       1Ag   -68.560167     2Ag    -5.904210     1B2u   -4.010256
       1B3u   -4.010256     1B1u   -4.010256     3Ag    -0.401161
       2B3u   -0.061889     2B1u   -0.061889     2B2u   -0.061889

    Alpha Virtual:

       3B1u    0.215584     3B3u    0.215584     3B2u    0.215584
       4Ag     0.221116     5Ag     0.384890     6Ag     0.384890
       1B1g    0.384890     1B2g    0.384890     1B3g    0.384890
       4B1u    0.748594     4B2u    0.748594     4B3u    0.748594
       7Ag     0.759811     8Ag     0.885188     9Ag     0.885188
       2B1g    0.885188     2B2g    0.885188     2B3g    0.885188
      10Ag     3.582606     3B3g    3.582606     3B1g    3.582606
       3B2g    3.582606    11Ag     3.582606

    Beta Occupied:

       1Ag   -68.550719     2Ag    -5.893086     1B3u   -3.989116
       1B2u   -3.989116     1B1u   -3.989116     3Ag    -0.204930

    Beta Virtual:

       2B2u    0.190979     2B3u    0.190979     2B1u    0.190979
       4Ag     0.248457     3B1u    0.322641     3B3u    0.322641
       3B2u    0.322641     5Ag     0.449916     6Ag     0.449916
       1B1g    0.449916     1B2g    0.449916     1B3g    0.449916
       7Ag     0.805356     4B1u    0.815648     4B2u    0.815648
       4B3u    0.815648     8Ag     0.960514     9Ag     0.960514
       2B1g    0.960514     2B2g    0.960514     2B3g    0.960514
      10Ag     3.593000     3B3g    3.593000     3B1g    3.593000
       3B2g    3.593000    11Ag     3.593000

    Final Occupation by Irrep:
             Ag   B1g   B2g   B3g    Au   B1u   B2u   B3u
    DOCC [     3,    0,    0,    0,    0,    1,    1,    1 ]
    SOCC [     0,    0,    0,    0,    0,    1,    1,    1 ]

  Energy converged.

  @UHF Final Energy:  -288.88276156967140

   => Energetics <=

    Nuclear Repulsion Energy =              0.0000000000000000
    One-Electron Energy =                -404.0674684960296190
    Two-Electron Energy =                 115.1847069263582171
    PCM Polarization Energy =               0.0000000000000000
    Total Energy =                       -288.8827615696714020

    Alert: EFP and PCM quantities not currently incorporated into SCF psivars.
  UHF NO Occupations:
  HONO-2 :    2B1u 1.0000000
  HONO-1 :    2B2u 1.0000000
  HONO-0 :    2B3u 1.0000000
  LUNO+0 :    4 Ag 0.0003182
  LUNO+1 :    3B3u 0.0000004
  LUNO+2 :    3B2u 0.0000004
  LUNO+3 :    3B1u 0.0000004

Properties will be evaluated at   0.000000,   0.000000,   0.000000 Bohr

Properties computed using the SCF density matrix

  Nuclear Dipole Moment: (a.u.)
     X:     0.0000      Y:     0.0000      Z:     0.0000

  Electronic Dipole Moment: (a.u.)
     X:     0.0000      Y:     0.0000      Z:     0.0000

  Dipole Moment: (a.u.)
     X:     0.0000      Y:     0.0000      Z:     0.0000     Total:     0.0000

  Dipole Moment: (Debye)
     X:     0.0000      Y:     0.0000      Z:     0.0000     Total:     0.0000

*** tstop() called on cqc05 at Thu Aug 20 19:56:09 2020
Module time:
	user time   =       0.34 seconds =       0.01 minutes
	system time =       0.01 seconds =       0.00 minutes
	total time  =          0 seconds =       0.00 minutes
Total time:
	user time   =       0.34 seconds =       0.01 minutes
	system time =       0.01 seconds =       0.00 minutes
	total time  =          0 seconds =       0.00 minutes

*** tstart() called on cqc05
*** at Thu Aug 20 19:56:09 2020

	Wfn Parameters:
	--------------------
	Wavefunction         = CCSD
	Number of irreps     = 8
	Number of MOs        = 32
	Number of active MOs = 27
	AO-Basis             = NONE
	Semicanonical        = false
	Reference            = UHF
	Print Level          = 1

	IRREP	# MOs	# FZDC	# DOCC	# SOCC	# VIRT	# FZVR
	-----	-----	------	------	------	------	------
	 Ag	   11	    2	    1	    0	    8	    0
	 B1g	   3	    0	    0	    0	    3	    0
	 B2g	   3	    0	    0	    0	    3	    0
	 B3g	   3	    0	    0	    0	    3	    0
	 Au	   0	    0	    0	    0	    0	    0
	 B1u	   4	    1	    0	    1	    2	    0
	 B2u	   4	    1	    0	    1	    2	    0
	 B3u	   4	    1	    0	    1	    2	    0
	Transforming integrals...
	IWL integrals will be deleted.
	(OO|OO)...
	Presorting SO-basis two-electron integrals.
	Sorting File: SO Ints (nn|nn) nbuckets = 1
	Transforming the one-electron integrals and constructing Fock matrices
	Starting AA/AB first half-transformation.
	Sorting AA/AB half-transformed integrals.
	Starting BB first half-transformation.
	Sorting BB half-transformed integrals.
	First half integral transformation complete.
	Starting AA second half-transformation.
	Starting AB second half-transformation.
	Starting BB second half-transformation.
	Two-electron integral transformation complete.
	(OO|OV)...
	Starting AA second half-transformation.
	Starting AB second half-transformation.
	Starting BB second half-transformation.
	Two-electron integral transformation complete.
	(OO|VV)...
	Starting AA second half-transformation.
	Starting AB second half-transformation.
	Starting BB second half-transformation.
	Two-electron integral transformation complete.
	(OV|OO)...
	Starting AA/AB first half-transformation.
	Sorting AA/AB half-transformed integrals.
	Starting BB first half-transformation.
	Sorting BB half-transformed integrals.
	First half integral transformation complete.
	Starting AA second half-transformation.
	Starting AB second half-transformation.
	Starting BB second half-transformation.
	Two-electron integral transformation complete.
	(OV|OV)...
	Starting AA second half-transformation.
	Starting AB second half-transformation.
	Starting BB second half-transformation.
	Two-electron integral transformation complete.
	(OV|VV)...
	Starting AA second half-transformation.
	Starting AB second half-transformation.
	Starting BB second half-transformation.
	Two-electron integral transformation complete.
	(VV|OO)...
	Starting AA/AB first half-transformation.
	Sorting AA/AB half-transformed integrals.
	Starting BB first half-transformation.
	Sorting BB half-transformed integrals.
	First half integral transformation complete.
	Starting AA second half-transformation.
	Starting AB second half-transformation.
	Starting BB second half-transformation.
	Two-electron integral transformation complete.
	(VV|OV)...
	Starting AA second half-transformation.
	Starting AB second half-transformation.
	Starting BB second half-transformation.
	Two-electron integral transformation complete.
	(VV|VV)...
	Starting AA second half-transformation.
	Starting AB second half-transformation.
	Starting BB second half-transformation.
	Two-electron integral transformation complete.
	Frozen core energy     =   -285.17101450642508

	Size of irrep 0 of <AB|CD> integrals:      0.002 (MW) /      0.013 (MB)
	Size of irrep 1 of <AB|CD> integrals:      0.001 (MW) /      0.011 (MB)
	Size of irrep 2 of <AB|CD> integrals:      0.001 (MW) /      0.011 (MB)
	Size of irrep 3 of <AB|CD> integrals:      0.001 (MW) /      0.011 (MB)
	Size of irrep 4 of <AB|CD> integrals:      0.000 (MW) /      0.003 (MB)
	Size of irrep 5 of <AB|CD> integrals:      0.001 (MW) /      0.006 (MB)
	Size of irrep 6 of <AB|CD> integrals:      0.001 (MW) /      0.006 (MB)
	Size of irrep 7 of <AB|CD> integrals:      0.001 (MW) /      0.006 (MB)
	Total:                                     0.008 (MW) /      0.067 (MB)

	Size of irrep 0 of <ab|cd> integrals:      0.002 (MW) /      0.017 (MB)
	Size of irrep 1 of <ab|cd> integrals:      0.002 (MW) /      0.014 (MB)
	Size of irrep 2 of <ab|cd> integrals:      0.002 (MW) /      0.014 (MB)
	Size of irrep 3 of <ab|cd> integrals:      0.002 (MW) /      0.014 (MB)
	Size of irrep 4 of <ab|cd> integrals:      0.001 (MW) /      0.006 (MB)
	Size of irrep 5 of <ab|cd> integrals:      0.002 (MW) /      0.014 (MB)
	Size of irrep 6 of <ab|cd> integrals:      0.002 (MW) /      0.014 (MB)
	Size of irrep 7 of <ab|cd> integrals:      0.002 (MW) /      0.014 (MB)
	Total:                                     0.013 (MW) /      0.107 (MB)

	Size of irrep 0 of <Ab|Cd> integrals:      0.012 (MW) /      0.095 (MB)
	Size of irrep 1 of <Ab|Cd> integrals:      0.006 (MW) /      0.049 (MB)
	Size of irrep 2 of <Ab|Cd> integrals:      0.006 (MW) /      0.049 (MB)
	Size of irrep 3 of <Ab|Cd> integrals:      0.006 (MW) /      0.049 (MB)
	Size of irrep 4 of <Ab|Cd> integrals:      0.002 (MW) /      0.016 (MB)
	Size of irrep 5 of <Ab|Cd> integrals:      0.005 (MW) /      0.039 (MB)
	Size of irrep 6 of <Ab|Cd> integrals:      0.005 (MW) /      0.039 (MB)
	Size of irrep 7 of <Ab|Cd> integrals:      0.005 (MW) /      0.039 (MB)
	Total:                                     0.047 (MW) /      0.375 (MB)

	Size of irrep 0 of <IA|BC> integrals:      0.001 (MW) /      0.012 (MB)
	Size of irrep 1 of <IA|BC> integrals:      0.001 (MW) /      0.004 (MB)
	Size of irrep 2 of <IA|BC> integrals:      0.001 (MW) /      0.004 (MB)
	Size of irrep 3 of <IA|BC> integrals:      0.001 (MW) /      0.004 (MB)
	Size of irrep 4 of <IA|BC> integrals:      0.000 (MW) /      0.003 (MB)
	Size of irrep 5 of <IA|BC> integrals:      0.001 (MW) /      0.007 (MB)
	Size of irrep 6 of <IA|BC> integrals:      0.001 (MW) /      0.007 (MB)
	Size of irrep 7 of <IA|BC> integrals:      0.001 (MW) /      0.007 (MB)
	Total:                                     0.006 (MW) /      0.048 (MB)

	Size of irrep 0 of <ia|bc> integrals:      0.001 (MW) /      0.008 (MB)
	Size of irrep 1 of <ia|bc> integrals:      0.000 (MW) /      0.002 (MB)
	Size of irrep 2 of <ia|bc> integrals:      0.000 (MW) /      0.002 (MB)
	Size of irrep 3 of <ia|bc> integrals:      0.000 (MW) /      0.002 (MB)
	Size of irrep 4 of <ia|bc> integrals:      0.000 (MW) /      0.000 (MB)
	Size of irrep 5 of <ia|bc> integrals:      0.000 (MW) /      0.002 (MB)
	Size of irrep 6 of <ia|bc> integrals:      0.000 (MW) /      0.002 (MB)
	Size of irrep 7 of <ia|bc> integrals:      0.000 (MW) /      0.002 (MB)
	Total:                                     0.002 (MW) /      0.020 (MB)

	Size of irrep 0 of <Ia|Bc> integrals:      0.002 (MW) /      0.015 (MB)
	Size of irrep 1 of <Ia|Bc> integrals:      0.001 (MW) /      0.006 (MB)
	Size of irrep 2 of <Ia|Bc> integrals:      0.001 (MW) /      0.006 (MB)
	Size of irrep 3 of <Ia|Bc> integrals:      0.001 (MW) /      0.006 (MB)
	Size of irrep 4 of <Ia|Bc> integrals:      0.000 (MW) /      0.003 (MB)
	Size of irrep 5 of <Ia|Bc> integrals:      0.001 (MW) /      0.010 (MB)
	Size of irrep 6 of <Ia|Bc> integrals:      0.001 (MW) /      0.010 (MB)
	Size of irrep 7 of <Ia|Bc> integrals:      0.001 (MW) /      0.010 (MB)
	Total:                                     0.008 (MW) /      0.063 (MB)

	Size of irrep 0 of <iA|bC> integrals:      0.001 (MW) /      0.007 (MB)
	Size of irrep 1 of <iA|bC> integrals:      0.000 (MW) /      0.002 (MB)
	Size of irrep 2 of <iA|bC> integrals:      0.000 (MW) /      0.002 (MB)
	Size of irrep 3 of <iA|bC> integrals:      0.000 (MW) /      0.002 (MB)
	Size of irrep 4 of <iA|bC> integrals:      0.000 (MW) /      0.000 (MB)
	Size of irrep 5 of <iA|bC> integrals:      0.000 (MW) /      0.001 (MB)
	Size of irrep 6 of <iA|bC> integrals:      0.000 (MW) /      0.001 (MB)
	Size of irrep 7 of <iA|bC> integrals:      0.000 (MW) /      0.001 (MB)
	Total:                                     0.002 (MW) /      0.016 (MB)

	Size of irrep 0 of tIjAb amplitudes:       0.000 (MW) /      0.001 (MB)
	Size of irrep 1 of tIjAb amplitudes:       0.000 (MW) /      0.000 (MB)
	Size of irrep 2 of tIjAb amplitudes:       0.000 (MW) /      0.000 (MB)
	Size of irrep 3 of tIjAb amplitudes:       0.000 (MW) /      0.000 (MB)
	Size of irrep 4 of tIjAb amplitudes:       0.000 (MW) /      0.000 (MB)
	Size of irrep 5 of tIjAb amplitudes:       0.000 (MW) /      0.001 (MB)
	Size of irrep 6 of tIjAb amplitudes:       0.000 (MW) /      0.001 (MB)
	Size of irrep 7 of tIjAb amplitudes:       0.000 (MW) /      0.001 (MB)
	Total:                                     0.000 (MW) /      0.003 (MB)

	Nuclear Rep. energy          =      0.00000000000000
	SCF energy                   =   -288.88276156967140
	One-electron energy          =     -6.63173658220640
	Two-electron (AA) energy     =      1.54417565477209
	Two-electron (BB) energy     =      0.00000000000000
	Two-electron (AB) energy     =      1.37581386418792
	Two-electron energy          =      2.91998951896001
	Reference energy             =   -288.88276156967146

*** tstop() called on cqc05 at Thu Aug 20 19:56:09 2020
Module time:
	user time   =       0.00 seconds =       0.00 minutes
	system time =       0.06 seconds =       0.00 minutes
	total time  =          0 seconds =       0.00 minutes
Total time:
	user time   =       0.34 seconds =       0.01 minutes
	system time =       0.07 seconds =       0.00 minutes
	total time  =          0 seconds =       0.00 minutes

*** tstart() called on cqc05
*** at Thu Aug 20 19:56:09 2020

            **************************
            *                        *
            *        CCENERGY        *
            *                        *
            **************************

    Nuclear Rep. energy (wfn)     =    0.000000000000000
    SCF energy          (wfn)     = -288.882761569671402
    Reference energy    (file100) = -288.882761569671459

    Input parameters:
    -----------------
    Wave function   =     CCSD
    Reference wfn   =     UHF
    Brueckner       =     No
    Memory (Mbytes) =     250000.0
    Maxiter         =     50
    R_Convergence   =     1.0e-07
    E_Convergence   =     1.0e-06
    Restart         =     Yes
    DIIS            =     Yes
    AO Basis        =     NONE
    ABCD            =     NEW
    Cache Level     =     2
    Cache Type      =     LRU
    Print Level     =     1
    Num. of threads =     4
    # Amps to Print =     10
    Print MP2 Amps? =     No
    Analyze T2 Amps =     No
    Print Pair Ener =     No
    Local CC        =     No
    SCS-MP2         =     False
    SCSN-MP2        =     False
    SCS-CCSD        =     False

MP2 correlation energy -0.0637018032581696
                Solving CC Amplitude Equations
                ------------------------------
  Iter             Energy              RMS        T1Diag      D1Diag    New D1Diag    D2Diag
  ----     ---------------------    ---------   ----------  ----------  ----------   --------
     0        -0.063701803258170    0.000e+00    0.000000    0.000000    0.000000    0.000000
     1        -0.077427833611446    5.435e-02    0.005363    0.000000    0.000000    0.000000
     2        -0.081474737456790    1.660e-02    0.008494    0.000000    0.000000    0.000000
     3        -0.081675753391228    4.295e-03    0.009557    0.000000    0.000000    0.000000
     4        -0.081711380070749    1.375e-03    0.009948    0.000000    0.000000    0.000000
     5        -0.081687777483354    3.006e-04    0.010042    0.000000    0.000000    0.000000
     6        -0.081696501102822    6.092e-05    0.010055    0.000000    0.000000    0.000000
     7        -0.081696515786025    1.529e-05    0.010058    0.000000    0.000000    0.000000
     8        -0.081696103453250    3.069e-06    0.010059    0.000000    0.000000    0.000000
     9        -0.081696198799161    7.158e-07    0.010059    0.000000    0.000000    0.000000
    10        -0.081696198876627    3.009e-07    0.010059    0.000000    0.000000    0.000000
    11        -0.081696195518822    1.305e-07    0.010059    0.000000    0.000000    0.000000
    12        -0.081696195784588    2.710e-08    0.010059    0.000000    0.000000    0.000000
    12        -0.081696195784588    2.710e-08    0.010059    0.000000    0.000000    0.000000

    Iterations converged.

    CCSD corr. energy   =   -0.081696195784588
    PPL corr. energy    =    0.024789083654110
    OS PPL corr. energy =    0.019435628085874
    SS PPL corr. energy =    0.005353455568236
    Largest TIA Amplitudes:
              0   3        -0.0097400845
              0   0         0.0093975021
              1  17        -0.0077025432
              2  19        -0.0077025432
              3  21        -0.0077025432
              1  18        -0.0066124658
              2  20        -0.0066124658
              3  22        -0.0066124658

    Largest Tia Amplitudes:
              0   0        -0.0034701441
              0   3         0.0012329619

    Largest TIJAB Amplitudes:
      3   1  11   2        -0.0568138124
      3   2   8   1         0.0523612399
      2   1  14   1        -0.0460431698
      3   2  21  19        -0.0446332959
      3   1  21  17        -0.0446332959
      2   1  19  17        -0.0446332959
      2   1  14   2        -0.0338785154
      3   2  14  11         0.0285820192
      3   1  14   8         0.0285820192
      2   1  11   8         0.0285820192

    Largest TIjAb Amplitudes:
      2   0   1  21        -0.0728248798
      1   0   2  18         0.0671174991
      1   0  11  24         0.0634569768
      1   0  14  21         0.0634569768
      2   0   8  24         0.0634569768
      2   0  14  18         0.0634569768
      3   0   8  21         0.0634569768
      3   0  11  18         0.0634569768
      3   0   2  24        -0.0590188928
      1   0   4  18         0.0526429292

    SCF energy       (wfn)                    = -288.882761569671402
    Reference energy (file100)                = -288.882761569671459

    Opposite-spin MP2 correlation energy      =   -0.044473545077167
    Same-spin MP2 correlation energy          =   -0.019228258181002
    MP2 correlation energy                    =   -0.063701803258170
      * MP2 total energy                      = -288.946463372929657

    Opposite-spin CCSD correlation energy     =   -0.060059668719539
    Same-spin CCSD correlation energy         =   -0.021636527265158
    CCSD correlation energy                   =   -0.081696195784588
      * CCSD total energy                     = -288.964457765456075
*** Psi4 exiting successfully. Buy a developer a beer!
