                               Psi4 1.2a1.dev938

  ==> Input File <==

--------------------------------------------------------------------------
# Any line starting with the # character is a comment line
memory 250000 mb
molecule molecule{
-1 4
Si          0.0000000000        0.0000000000        0.0000000000
}

set {
  reference uhf
  basis aug-cc-pv(t+d)z
  scf_type OUT_OF_CORE
  freeze_core true
}

energy('ccsd')
--------------------------------------------------------------------------

    Molecular point group: d2h
    Geometry (in Angstrom), charge = -1, multiplicity = 4:

       Center              X                  Y                   Z               Mass
    ------------   -----------------  -----------------  -----------------  -----------------
          SI          0.000000000000     0.000000000000     0.000000000000    27.976926532460

  Charge       = -1
  Multiplicity = 4
  Basis Set: AUG-CC-PV(T+D)Z
    Blend: AUG-CC-PV(T+D)Z

    Orbital Energies (a.u.)
    -----------------------

    Alpha Occupied:

       1Ag   -68.559412     2Ag    -5.903797     1B3u   -4.010454
       1B1u   -4.010454     1B2u   -4.010454     3Ag    -0.400741
       2B3u   -0.061960     2B2u   -0.061960     2B1u   -0.061960

    Alpha Virtual:

       3B3u    0.203826     3B2u    0.203826     3B1u    0.203826
       4Ag     0.212478     5Ag     0.305731     1B3g    0.305731
       1B1g    0.305731     1B2g    0.305731     6Ag     0.305731
       7Ag     0.642248     2B2g    0.642248     2B1g    0.642248
       8Ag     0.642248     2B3g    0.642248     4B3u    0.653771
       4B2u    0.653771     4B1u    0.653771     9Ag     0.668398
       5B2u    0.683410     5B1u    0.683410     5B3u    0.683410
       1Au     0.683410     6B2u    0.683410     6B1u    0.683410
       6B3u    0.683410     3B3g    1.474428    10Ag     1.474428
       3B2g    1.474428     3B1g    1.474428    11Ag     1.474428
       7B2u    1.664805     7B1u    1.664805     7B3u    1.664805
       2Au     1.664805     8B1u    1.664805     8B2u    1.664805
       8B3u    1.664805     9B3u    2.747331     9B2u    2.747331
       9B1u    2.747331    12Ag     2.783663    13Ag     5.029862
       4B3g    5.029862     4B2g    5.029862     4B1g    5.029862
      14Ag     5.029862

    Beta Occupied:

       1Ag   -68.549289     2Ag    -5.892655     1B1u   -3.987801
       1B2u   -3.987801     1B3u   -3.987801     3Ag    -0.204608

    Beta Virtual:

       2B3u    0.184234     2B2u    0.184234     2B1u    0.184234
       4Ag     0.236839     3B2u    0.311844     3B1u    0.311844
       3B3u    0.311844     5Ag     0.340075     1B2g    0.340075
       1B1g    0.340075     1B3g    0.340075     6Ag     0.340075
       7Ag     0.712472     1Au     0.715584     4B2u    0.715584
       4B1u    0.715584     4B3u    0.715584     5B3u    0.715584
       5B2u    0.715584     5B1u    0.715584     6B2u    0.720857
       6B1u    0.720857     6B3u    0.720857     2B3g    0.727502
       8Ag     0.727502     2B2g    0.727502     2B1g    0.727502
       9Ag     0.727502     3B3g    1.513352    10Ag     1.513352
       3B2g    1.513352     3B1g    1.513352    11Ag     1.513352
       7B2u    1.713062     7B1u    1.713062     2Au     1.713062
       7B3u    1.713062     8B2u    1.713062     8B1u    1.713062
       8B3u    1.713062     9B2u    2.783140     9B1u    2.783140
       9B3u    2.783140    12Ag     2.809101     4B3g    5.039361
      13Ag     5.039361     4B2g    5.039361     4B1g    5.039361
      14Ag     5.039361

    Final Occupation by Irrep:
             Ag   B1g   B2g   B3g    Au   B1u   B2u   B3u
    DOCC [     3,    0,    0,    0,    0,    1,    1,    1 ]
    SOCC [     0,    0,    0,    0,    0,    1,    1,    1 ]

  Energy converged.

  @UHF Final Energy:  -288.88804875478405

   => Energetics <=

    Nuclear Repulsion Energy =              0.0000000000000000
    One-Electron Energy =                -404.0849498298858862
    Two-Electron Energy =                 115.1969010751018345
    PCM Polarization Energy =               0.0000000000000000
    Total Energy =                       -288.8880487547840517

    Alert: EFP and PCM quantities not currently incorporated into SCF psivars.
  UHF NO Occupations:
  HONO-2 :    2B2u 1.0000000
  HONO-1 :    2B1u 1.0000000
  HONO-0 :    2B3u 1.0000000
  LUNO+0 :    4 Ag 0.0003892
  LUNO+1 :    3B3u 0.0000029
  LUNO+2 :    3B2u 0.0000029
  LUNO+3 :    3B1u 0.0000029

Properties will be evaluated at   0.000000,   0.000000,   0.000000 Bohr

Properties computed using the SCF density matrix

  Nuclear Dipole Moment: (a.u.)
     X:     0.0000      Y:     0.0000      Z:     0.0000

  Electronic Dipole Moment: (a.u.)
     X:     0.0000      Y:     0.0000      Z:     0.0000

  Dipole Moment: (a.u.)
     X:     0.0000      Y:     0.0000      Z:     0.0000     Total:     0.0000

  Dipole Moment: (Debye)
     X:     0.0000      Y:     0.0000      Z:     0.0000     Total:     0.0000

*** tstop() called on cqc05 at Thu Aug 20 20:10:49 2020
Module time:
	user time   =       0.68 seconds =       0.01 minutes
	system time =       0.02 seconds =       0.00 minutes
	total time  =          0 seconds =       0.00 minutes
Total time:
	user time   =       0.68 seconds =       0.01 minutes
	system time =       0.02 seconds =       0.00 minutes
	total time  =          0 seconds =       0.00 minutes

*** tstart() called on cqc05
*** at Thu Aug 20 20:10:49 2020

	Wfn Parameters:
	--------------------
	Wavefunction         = CCSD
	Number of irreps     = 8
	Number of MOs        = 55
	Number of active MOs = 50
	AO-Basis             = NONE
	Semicanonical        = false
	Reference            = UHF
	Print Level          = 1

	IRREP	# MOs	# FZDC	# DOCC	# SOCC	# VIRT	# FZVR
	-----	-----	------	------	------	------	------
	 Ag	   14	    2	    1	    0	    11	    0
	 B1g	   4	    0	    0	    0	    4	    0
	 B2g	   4	    0	    0	    0	    4	    0
	 B3g	   4	    0	    0	    0	    4	    0
	 Au	   2	    0	    0	    0	    2	    0
	 B1u	   9	    1	    0	    1	    7	    0
	 B2u	   9	    1	    0	    1	    7	    0
	 B3u	   9	    1	    0	    1	    7	    0
	Transforming integrals...
	IWL integrals will be deleted.
	(OO|OO)...
	Presorting SO-basis two-electron integrals.
	Sorting File: SO Ints (nn|nn) nbuckets = 1
	Transforming the one-electron integrals and constructing Fock matrices
	Starting AA/AB first half-transformation.
	Sorting AA/AB half-transformed integrals.
	Starting BB first half-transformation.
	Sorting BB half-transformed integrals.
	First half integral transformation complete.
	Starting AA second half-transformation.
	Starting AB second half-transformation.
	Starting BB second half-transformation.
	Two-electron integral transformation complete.
	(OO|OV)...
	Starting AA second half-transformation.
	Starting AB second half-transformation.
	Starting BB second half-transformation.
	Two-electron integral transformation complete.
	(OO|VV)...
	Starting AA second half-transformation.
	Starting AB second half-transformation.
	Starting BB second half-transformation.
	Two-electron integral transformation complete.
	(OV|OO)...
	Starting AA/AB first half-transformation.
	Sorting AA/AB half-transformed integrals.
	Starting BB first half-transformation.
	Sorting BB half-transformed integrals.
	First half integral transformation complete.
	Starting AA second half-transformation.
	Starting AB second half-transformation.
	Starting BB second half-transformation.
	Two-electron integral transformation complete.
	(OV|OV)...
	Starting AA second half-transformation.
	Starting AB second half-transformation.
	Starting BB second half-transformation.
	Two-electron integral transformation complete.
	(OV|VV)...
	Starting AA second half-transformation.
	Starting AB second half-transformation.
	Starting BB second half-transformation.
	Two-electron integral transformation complete.
	(VV|OO)...
	Starting AA/AB first half-transformation.
	Sorting AA/AB half-transformed integrals.
	Starting BB first half-transformation.
	Sorting BB half-transformed integrals.
	First half integral transformation complete.
	Starting AA second half-transformation.
	Starting AB second half-transformation.
	Starting BB second half-transformation.
	Two-electron integral transformation complete.
	(VV|OV)...
	Starting AA second half-transformation.
	Starting AB second half-transformation.
	Starting BB second half-transformation.
	Two-electron integral transformation complete.
	(VV|VV)...
	Starting AA second half-transformation.
	Starting AB second half-transformation.
	Starting BB second half-transformation.
	Two-electron integral transformation complete.
	Frozen core energy     =   -285.17549538310237

	Size of irrep 0 of <AB|CD> integrals:      0.019 (MW) /      0.150 (MB)
	Size of irrep 1 of <AB|CD> integrals:      0.015 (MW) /      0.121 (MB)
	Size of irrep 2 of <AB|CD> integrals:      0.015 (MW) /      0.121 (MB)
	Size of irrep 3 of <AB|CD> integrals:      0.015 (MW) /      0.121 (MB)
	Size of irrep 4 of <AB|CD> integrals:      0.011 (MW) /      0.090 (MB)
	Size of irrep 5 of <AB|CD> integrals:      0.020 (MW) /      0.159 (MB)
	Size of irrep 6 of <AB|CD> integrals:      0.020 (MW) /      0.159 (MB)
	Size of irrep 7 of <AB|CD> integrals:      0.020 (MW) /      0.159 (MB)
	Total:                                     0.135 (MW) /      1.080 (MB)

	Size of irrep 0 of <ab|cd> integrals:      0.025 (MW) /      0.200 (MB)
	Size of irrep 1 of <ab|cd> integrals:      0.020 (MW) /      0.157 (MB)
	Size of irrep 2 of <ab|cd> integrals:      0.020 (MW) /      0.157 (MB)
	Size of irrep 3 of <ab|cd> integrals:      0.020 (MW) /      0.157 (MB)
	Size of irrep 4 of <ab|cd> integrals:      0.014 (MW) /      0.111 (MB)
	Size of irrep 5 of <ab|cd> integrals:      0.026 (MW) /      0.205 (MB)
	Size of irrep 6 of <ab|cd> integrals:      0.026 (MW) /      0.205 (MB)
	Size of irrep 7 of <ab|cd> integrals:      0.026 (MW) /      0.205 (MB)
	Total:                                     0.174 (MW) /      1.396 (MB)

	Size of irrep 0 of <Ab|Cd> integrals:      0.116 (MW) /      0.930 (MB)
	Size of irrep 1 of <Ab|Cd> integrals:      0.069 (MW) /      0.549 (MB)
	Size of irrep 2 of <Ab|Cd> integrals:      0.069 (MW) /      0.549 (MB)
	Size of irrep 3 of <Ab|Cd> integrals:      0.069 (MW) /      0.549 (MB)
	Size of irrep 4 of <Ab|Cd> integrals:      0.050 (MW) /      0.401 (MB)
	Size of irrep 5 of <Ab|Cd> integrals:      0.091 (MW) /      0.725 (MB)
	Size of irrep 6 of <Ab|Cd> integrals:      0.091 (MW) /      0.725 (MB)
	Size of irrep 7 of <Ab|Cd> integrals:      0.091 (MW) /      0.725 (MB)
	Total:                                     0.644 (MW) /      5.154 (MB)

	Size of irrep 0 of <IA|BC> integrals:      0.010 (MW) /      0.082 (MB)
	Size of irrep 1 of <IA|BC> integrals:      0.005 (MW) /      0.039 (MB)
	Size of irrep 2 of <IA|BC> integrals:      0.005 (MW) /      0.039 (MB)
	Size of irrep 3 of <IA|BC> integrals:      0.005 (MW) /      0.039 (MB)
	Size of irrep 4 of <IA|BC> integrals:      0.003 (MW) /      0.024 (MB)
	Size of irrep 5 of <IA|BC> integrals:      0.007 (MW) /      0.059 (MB)
	Size of irrep 6 of <IA|BC> integrals:      0.007 (MW) /      0.059 (MB)
	Size of irrep 7 of <IA|BC> integrals:      0.007 (MW) /      0.059 (MB)
	Total:                                     0.050 (MW) /      0.400 (MB)

	Size of irrep 0 of <ia|bc> integrals:      0.004 (MW) /      0.032 (MB)
	Size of irrep 1 of <ia|bc> integrals:      0.001 (MW) /      0.009 (MB)
	Size of irrep 2 of <ia|bc> integrals:      0.001 (MW) /      0.009 (MB)
	Size of irrep 3 of <ia|bc> integrals:      0.001 (MW) /      0.009 (MB)
	Size of irrep 4 of <ia|bc> integrals:      0.000 (MW) /      0.004 (MB)
	Size of irrep 5 of <ia|bc> integrals:      0.003 (MW) /      0.020 (MB)
	Size of irrep 6 of <ia|bc> integrals:      0.003 (MW) /      0.020 (MB)
	Size of irrep 7 of <ia|bc> integrals:      0.003 (MW) /      0.020 (MB)
	Total:                                     0.016 (MW) /      0.124 (MB)

	Size of irrep 0 of <Ia|Bc> integrals:      0.012 (MW) /      0.095 (MB)
	Size of irrep 1 of <Ia|Bc> integrals:      0.006 (MW) /      0.046 (MB)
	Size of irrep 2 of <Ia|Bc> integrals:      0.006 (MW) /      0.046 (MB)
	Size of irrep 3 of <Ia|Bc> integrals:      0.006 (MW) /      0.046 (MB)
	Size of irrep 4 of <Ia|Bc> integrals:      0.003 (MW) /      0.025 (MB)
	Size of irrep 5 of <Ia|Bc> integrals:      0.008 (MW) /      0.065 (MB)
	Size of irrep 6 of <Ia|Bc> integrals:      0.008 (MW) /      0.065 (MB)
	Size of irrep 7 of <Ia|Bc> integrals:      0.008 (MW) /      0.065 (MB)
	Total:                                     0.057 (MW) /      0.454 (MB)

	Size of irrep 0 of <iA|bC> integrals:      0.004 (MW) /      0.030 (MB)
	Size of irrep 1 of <iA|bC> integrals:      0.001 (MW) /      0.008 (MB)
	Size of irrep 2 of <iA|bC> integrals:      0.001 (MW) /      0.008 (MB)
	Size of irrep 3 of <iA|bC> integrals:      0.001 (MW) /      0.008 (MB)
	Size of irrep 4 of <iA|bC> integrals:      0.000 (MW) /      0.004 (MB)
	Size of irrep 5 of <iA|bC> integrals:      0.002 (MW) /      0.017 (MB)
	Size of irrep 6 of <iA|bC> integrals:      0.002 (MW) /      0.017 (MB)
	Size of irrep 7 of <iA|bC> integrals:      0.002 (MW) /      0.017 (MB)
	Total:                                     0.014 (MW) /      0.109 (MB)

	Size of irrep 0 of tIjAb amplitudes:       0.000 (MW) /      0.003 (MB)
	Size of irrep 1 of tIjAb amplitudes:       0.000 (MW) /      0.000 (MB)
	Size of irrep 2 of tIjAb amplitudes:       0.000 (MW) /      0.000 (MB)
	Size of irrep 3 of tIjAb amplitudes:       0.000 (MW) /      0.000 (MB)
	Size of irrep 4 of tIjAb amplitudes:       0.000 (MW) /      0.000 (MB)
	Size of irrep 5 of tIjAb amplitudes:       0.000 (MW) /      0.002 (MB)
	Size of irrep 6 of tIjAb amplitudes:       0.000 (MW) /      0.002 (MB)
	Size of irrep 7 of tIjAb amplitudes:       0.000 (MW) /      0.002 (MB)
	Total:                                     0.001 (MW) /      0.010 (MB)

	Nuclear Rep. energy          =      0.00000000000000
	SCF energy                   =   -288.88804875478405
	One-electron energy          =     -6.63387807227496
	Two-electron (AA) energy     =      1.54472812879726
	Two-electron (BB) energy     =      0.00000000000000
	Two-electron (AB) energy     =      1.37659657179617
	Two-electron energy          =      2.92132470059343
	Reference energy             =   -288.88804875478388

*** tstop() called on cqc05 at Thu Aug 20 20:10:49 2020
Module time:
	user time   =       0.14 seconds =       0.00 minutes
	system time =       0.08 seconds =       0.00 minutes
	total time  =          0 seconds =       0.00 minutes
Total time:
	user time   =       0.82 seconds =       0.01 minutes
	system time =       0.10 seconds =       0.00 minutes
	total time  =          0 seconds =       0.00 minutes

*** tstart() called on cqc05
*** at Thu Aug 20 20:10:49 2020

            **************************
            *                        *
            *        CCENERGY        *
            *                        *
            **************************

    Nuclear Rep. energy (wfn)     =    0.000000000000000
    SCF energy          (wfn)     = -288.888048754784052
    Reference energy    (file100) = -288.888048754783881

    Input parameters:
    -----------------
    Wave function   =     CCSD
    Reference wfn   =     UHF
    Brueckner       =     No
    Memory (Mbytes) =     250000.0
    Maxiter         =     50
    R_Convergence   =     1.0e-07
    E_Convergence   =     1.0e-06
    Restart         =     Yes
    DIIS            =     Yes
    AO Basis        =     NONE
    ABCD            =     NEW
    Cache Level     =     2
    Cache Type      =     LRU
    Print Level     =     1
    Num. of threads =     4
    # Amps to Print =     10
    Print MP2 Amps? =     No
    Analyze T2 Amps =     No
    Print Pair Ener =     No
    Local CC        =     No
    SCS-MP2         =     False
    SCSN-MP2        =     False
    SCS-CCSD        =     False

MP2 correlation energy -0.0764036375899339
                Solving CC Amplitude Equations
                ------------------------------
  Iter             Energy              RMS        T1Diag      D1Diag    New D1Diag    D2Diag
  ----     ---------------------    ---------   ----------  ----------  ----------   --------
     0        -0.076403637589935    0.000e+00    0.000000    0.000000    0.000000    0.000000
     1        -0.088578864360388    4.989e-02    0.006948    0.000000    0.000000    0.000000
     2        -0.092065587190407    1.525e-02    0.009878    0.000000    0.000000    0.000000
     3        -0.092308594170723    3.332e-03    0.010228    0.000000    0.000000    0.000000
     4        -0.092315295048852    1.053e-03    0.010157    0.000000    0.000000    0.000000
     5        -0.092310674412842    2.695e-04    0.010131    0.000000    0.000000    0.000000
     6        -0.092312545766556    8.891e-05    0.010126    0.000000    0.000000    0.000000
     7        -0.092312985763367    1.980e-05    0.010127    0.000000    0.000000    0.000000
     8        -0.092312799156502    4.855e-06    0.010127    0.000000    0.000000    0.000000
     9        -0.092312845639552    8.187e-07    0.010127    0.000000    0.000000    0.000000
    10        -0.092312846009752    1.753e-07    0.010127    0.000000    0.000000    0.000000
    11        -0.092312845105939    5.540e-08    0.010127    0.000000    0.000000    0.000000
    11        -0.092312845105939    5.540e-08    0.010127    0.000000    0.000000    0.000000

    Iterations converged.

    CCSD corr. energy   =   -0.092312845105939
    PPL corr. energy    =    0.031751605527310
    OS PPL corr. energy =    0.025099497578293
    SS PPL corr. energy =    0.006652107949016
    Largest TIA Amplitudes:
              0   5        -0.0112937367
              0   0         0.0109635191
              3  40        -0.0092196439
              1  26        -0.0092194291
              2  33        -0.0092194291
              3  45         0.0012232765
              1  31         0.0012232692
              2  38         0.0012232692
              0   8         0.0010770540
              1  25        -0.0002217580

    Largest Tia Amplitudes:
              0   8        -0.0015899988
              0   3         0.0012934958
              0   0        -0.0000369456
              0   5        -0.0000000499
              0   7        -0.0000000210
              0   1        -0.0000000139

    Largest TIJAB Amplitudes:
      2   1  19   1        -0.0415303963
      2   1  32  25        -0.0388417989
      3   2  39  32        -0.0388417194
      3   1  39  25        -0.0388417194
      2   1  20   4        -0.0383107359
      3   2  11   2        -0.0359664418
      3   1  15   2        -0.0359662647
      3   2  12   3        -0.0331782233
      3   1  16   3        -0.0331779496
      2   1  20   1        -0.0303841585

    Largest TIjAb Amplitudes:
      3   0   3  42        -0.0689728666
      1   0   4  26         0.0597324886

      * MP2 total energy                      = -288.964452392373801
      * CCSD total energy                     = -288.980361599889818
*** Psi4 exiting successfully. Buy a developer a beer!
