                               Psi4 1.2a1.dev938

  ==> Input File <==

--------------------------------------------------------------------------
# Any line starting with the # character is a comment line
memory 250000 mb
molecule molecule{
-1 3
N          0.0000000000        0.0000000000        0.6693287680
O          0.0000000000        0.0000000000       -0.5859649271
}

set {
  reference uhf
  basis aug-cc-pv(t+d)z
  scf_type OUT_OF_CORE
  freeze_core true
}

energy('ccsd')
--------------------------------------------------------------------------

    Molecular point group: c2v

    Geometry (in Angstrom), charge = -1, multiplicity = 3:

       Center              X                  Y                   Z               Mass
    ------------   -----------------  -----------------  -----------------  -----------------
           N          0.000000000000     0.000000000000     0.669322057790    14.003074004780
           O          0.000000000000     0.000000000000    -0.585971637310    15.994914619560

  Charge       = -1
  Multiplicity = 3
  Basis Set: AUG-CC-PV(T+D)Z
    Blend: AUG-CC-PV(T+D)Z

    Orbital Energies (a.u.)
    -----------------------

    Alpha Occupied:

       1A1   -20.542423     2A1   -15.594544     3A1    -1.363822
       4A1    -0.824384     1B2    -0.580504     5A1    -0.507951
       1B1    -0.441813     2B2    -0.300213     6A1     0.083971

    Alpha Virtual:

       2B1     0.196654     7A1     0.233669     3B2     0.248905
       3B1     0.267007     8A1     0.318317     4B2     0.331182
       4B1     0.338445     9A1     0.464592    10A1     0.591942
       1A2     0.592189    11A1     0.622061     5B2     0.686696
       5B1     0.693180    12A1     0.741848     6B2     0.847541
      13A1     0.861138     6B1     0.874889     2A2     0.917372
      14A1     0.917444    15A1     0.988429     7B2     0.999201
       7B1     1.018548    16A1     1.219012     8B2     1.317541
       8B1     1.334273    17A1     1.552229     9B2     1.614174
       9B1     1.614175     3A2     1.623308    18A1     1.624145
      10B2     1.730967    10B1     1.740105    19A1     1.797890
       4A2     1.798042    20A1     1.809047    11B1     2.072005
      11B2     2.072344    21A1     2.163394    12B1     2.313669
      12B2     2.313670     5A2     2.366914    22A1     2.367045
      23A1     2.615007    13B1     2.653799    13B2     2.654552
      24A1     2.732299     6A2     2.779821    25A1     2.780703
      14B2     2.866570    14B1     2.890390    26A1     3.481486
      15B2     3.859050    15B1     3.880599    27A1     4.131463
      16B2     4.571698    16B1     4.584671    17B2     4.957849
      17B1     4.957850    28A1     4.990803     7A2     4.990881
      29A1     5.124662     8A2     5.163315    30A1     5.163664
      18B2     5.211068    18B1     5.215526    31A1     5.493319
      32A1     5.578742    19B1     5.669503    19B2     5.671075
      20B1     6.615325    20B2     6.615325    33A1     6.846104
       9A2     6.846129    10A2     7.153697    34A1     7.153741
      21B1     7.273063    21B2     7.285093    35A1     7.460148
      22B1     7.573471    22B2     7.578457    36A1     7.729382
      37A1    11.844098    38A1    13.573998

    Beta Occupied:

       1A1   -20.520725     2A1   -15.567043     3A1    -1.309347
       4A1    -0.725666     5A1    -0.471697     1B1    -0.413562
       1B2    -0.389093

    Beta Virtual:

       2B1     0.213839     2B2     0.235127     6A1     0.236262
       7A1     0.254758     3B1     0.284518     3B2     0.320504
       8A1     0.363740     4B1     0.373184     4B2     0.377428
       9A1     0.487372    10A1     0.600827     1A2     0.601171
      11A1     0.642000     5B1     0.697628     5B2     0.706379
      12A1     0.767051    13A1     0.868161     6B1     0.881167
       6B2     0.908106     2A2     0.925012    14A1     0.925306
      15A1     1.005004     7B1     1.027341     7B2     1.046280
      16A1     1.234955     8B1     1.345411     8B2     1.356903
      17A1     1.562642     9B1     1.622207     9B2     1.622212
       3A2     1.660853    18A1     1.661116    10B1     1.740866
      10B2     1.766120    19A1     1.802429     4A2     1.806776
      20A1     1.826582    11B1     2.075535    11B2     2.096666
      21A1     2.177838    12B1     2.318819    12B2     2.318822
       5A2     2.396185    22A1     2.396195    23A1     2.624100
      13B1     2.657175    13B2     2.673810    24A1     2.741543
       6A2     2.788129    25A1     2.790651    14B1     2.896859
      14B2     2.932256    26A1     3.510187    15B1     3.890477
      15B2     3.930851    27A1     4.147742    16B1     4.598866
      16B2     4.627951    17B1     4.993627    17B2     4.993662
      28A1     5.011871     7A2     5.014769    29A1     5.143973
      18B1     5.221360    30A1     5.225235     8A2     5.225711
      18B2     5.261196    31A1     5.513170    32A1     5.593272
      19B1     5.675321    19B2     5.710984    20B1     6.637892
      20B2     6.637896    33A1     6.861527     9A2     6.861578
      34A1     7.198619    10A2     7.198737    21B1     7.280005
      21B2     7.308719    35A1     7.471787    22B1     7.584797
      22B2     7.612258    36A1     7.743929    37A1    11.864808
      38A1    13.593207

    Final Occupation by Irrep:
             A1    A2    B1    B2
    DOCC [     5,    0,    1,    1 ]
    SOCC [     1,    0,    0,    1 ]

  Energy converged.

  @UHF Final Energy:  -129.17862192024401

   => Energetics <=

    Nuclear Repulsion Energy =             23.6071636436278638
    One-Electron Energy =                -226.1027550530099575
    Two-Electron Energy =                  73.3169694891380743
    PCM Polarization Energy =               0.0000000000000000
    Total Energy =                       -129.1786219202440122

    Alert: EFP and PCM quantities not currently incorporated into SCF psivars.
  UHF NO Occupations:
  HONO-2 :    1 B2 1.9949358
  HONO-1 :    6 A1 1.0000000
  HONO-0 :    2 B2 1.0000000
  LUNO+0 :    3 B2 0.0050642
  LUNO+1 :    2 B1 0.0025144
  LUNO+2 :    7 A1 0.0022076
  LUNO+3 :    8 A1 0.0003813

Properties will be evaluated at   0.000000,   0.000000,   0.000000 Bohr

Properties computed using the SCF density matrix

  Nuclear Dipole Moment: (a.u.)
     X:     0.0000      Y:     0.0000      Z:    -0.0048

  Electronic Dipole Moment: (a.u.)
     X:     0.0000      Y:     0.0000      Z:     2.6123

  Dipole Moment: (a.u.)
     X:     0.0000      Y:     0.0000      Z:     2.6076     Total:     2.6076

  Dipole Moment: (Debye)
     X:     0.0000      Y:     0.0000      Z:     6.6278     Total:     6.6278

*** tstop() called on cqc05 at Thu Aug 20 20:03:26 2020
Module time:
	user time   =       3.75 seconds =       0.06 minutes
	system time =       0.18 seconds =       0.00 minutes
	total time  =          3 seconds =       0.05 minutes
Total time:
	user time   =       3.75 seconds =       0.06 minutes
	system time =       0.18 seconds =       0.00 minutes
	total time  =          3 seconds =       0.05 minutes

*** tstart() called on cqc05
*** at Thu Aug 20 20:03:26 2020

	Wfn Parameters:
	--------------------
	Wavefunction         = CCSD
	Number of irreps     = 4
	Number of MOs        = 92
	Number of active MOs = 90
	AO-Basis             = NONE
	Semicanonical        = false
	Reference            = UHF
	Print Level          = 1

	IRREP	# MOs	# FZDC	# DOCC	# SOCC	# VIRT	# FZVR
	-----	-----	------	------	------	------	------
	 A1	   38	    2	    3	    1	    32	    0
	 A2	   10	    0	    0	    0	    10	    0
	 B1	   22	    0	    1	    0	    21	    0
	 B2	   22	    0	    1	    1	    20	    0
	Transforming integrals...
	IWL integrals will be deleted.
	(OO|OO)...
	Presorting SO-basis two-electron integrals.
	Sorting File: SO Ints (nn|nn) nbuckets = 1
	Transforming the one-electron integrals and constructing Fock matrices
	Starting AA/AB first half-transformation.
	Sorting AA/AB half-transformed integrals.
	Starting BB first half-transformation.
	Sorting BB half-transformed integrals.
	First half integral transformation complete.
	Starting AA second half-transformation.
	Starting AB second half-transformation.
	Starting BB second half-transformation.
	Two-electron integral transformation complete.
	(OO|OV)...
	Starting AA second half-transformation.
	Starting AB second half-transformation.
	Starting BB second half-transformation.
	Two-electron integral transformation complete.
	(OO|VV)...
	Starting AA second half-transformation.
	Starting AB second half-transformation.
	Starting BB second half-transformation.
	Two-electron integral transformation complete.
	(OV|OO)...
	Starting AA/AB first half-transformation.
	Sorting AA/AB half-transformed integrals.
	Starting BB first half-transformation.
	Sorting BB half-transformed integrals.
	First half integral transformation complete.
	Starting AA second half-transformation.
	Starting AB second half-transformation.
	Starting BB second half-transformation.
	Two-electron integral transformation complete.
	(OV|OV)...
	Starting AA second half-transformation.
	Starting AB second half-transformation.
	Starting BB second half-transformation.
	Two-electron integral transformation complete.
	(OV|VV)...
	Starting AA second half-transformation.
	Starting AB second half-transformation.
	Starting BB second half-transformation.
	Two-electron integral transformation complete.
	(VV|OO)...
	Starting AA/AB first half-transformation.
	Sorting AA/AB half-transformed integrals.
	Starting BB first half-transformation.
	Sorting BB half-transformed integrals.
	First half integral transformation complete.
	Starting AA second half-transformation.
	Starting AB second half-transformation.
	Starting BB second half-transformation.
	Two-electron integral transformation complete.
	(VV|OV)...
	Starting AA second half-transformation.
	Starting AB second half-transformation.
	Starting BB second half-transformation.
	Two-electron integral transformation complete.
	(VV|VV)...
	Starting AA second half-transformation.
	Starting AB second half-transformation.
	Starting BB second half-transformation.
	Two-electron integral transformation complete.
	Frozen core energy     =   -114.80040016212916

	Size of irrep 0 of <AB|CD> integrals:      0.885 (MW) /      7.084 (MB)
	Size of irrep 1 of <AB|CD> integrals:      0.548 (MW) /      4.381 (MB)
	Size of irrep 2 of <AB|CD> integrals:      0.760 (MW) /      6.083 (MB)
	Size of irrep 3 of <AB|CD> integrals:      0.723 (MW) /      5.780 (MB)
	Total:                                     2.916 (MW) /     23.328 (MB)

	Size of irrep 0 of <ab|cd> integrals:      0.986 (MW) /      7.888 (MB)
	Size of irrep 1 of <ab|cd> integrals:      0.594 (MW) /      4.756 (MB)
	Size of irrep 2 of <ab|cd> integrals:      0.815 (MW) /      6.523 (MB)
	Size of irrep 3 of <ab|cd> integrals:      0.815 (MW) /      6.523 (MB)
	Total:                                     3.211 (MW) /     25.690 (MB)

	Size of irrep 0 of <Ab|Cd> integrals:      4.068 (MW) /     32.546 (MB)
	Size of irrep 1 of <Ab|Cd> integrals:      2.283 (MW) /     18.265 (MB)
	Size of irrep 2 of <Ab|Cd> integrals:      3.151 (MW) /     25.205 (MB)
	Size of irrep 3 of <Ab|Cd> integrals:      3.070 (MW) /     24.556 (MB)
	Total:                                    12.572 (MW) /    100.572 (MB)

	Size of irrep 0 of <IA|BC> integrals:      0.371 (MW) /      2.971 (MB)
	Size of irrep 1 of <IA|BC> integrals:      0.151 (MW) /      1.208 (MB)
	Size of irrep 2 of <IA|BC> integrals:      0.237 (MW) /      1.897 (MB)
	Size of irrep 3 of <IA|BC> integrals:      0.262 (MW) /      2.094 (MB)
	Total:                                     1.021 (MW) /      8.171 (MB)

	Size of irrep 0 of <ia|bc> integrals:      0.292 (MW) /      2.336 (MB)
	Size of irrep 1 of <ia|bc> integrals:      0.111 (MW) /      0.888 (MB)
	Size of irrep 2 of <ia|bc> integrals:      0.191 (MW) /      1.531 (MB)
	Size of irrep 3 of <ia|bc> integrals:      0.191 (MW) /      1.531 (MB)
	Total:                                     0.786 (MW) /      6.287 (MB)

	Size of irrep 0 of <Ia|Bc> integrals:      0.393 (MW) /      3.147 (MB)
	Size of irrep 1 of <Ia|Bc> integrals:      0.156 (MW) /      1.245 (MB)
	Size of irrep 2 of <Ia|Bc> integrals:      0.243 (MW) /      1.945 (MB)
	Size of irrep 3 of <Ia|Bc> integrals:      0.280 (MW) /      2.243 (MB)
	Total:                                     1.072 (MW) /      8.580 (MB)

	Size of irrep 0 of <iA|bC> integrals:      0.276 (MW) /      2.211 (MB)
	Size of irrep 1 of <iA|bC> integrals:      0.107 (MW) /      0.858 (MB)
	Size of irrep 2 of <iA|bC> integrals:      0.186 (MW) /      1.491 (MB)
	Size of irrep 3 of <iA|bC> integrals:      0.179 (MW) /      1.430 (MB)
	Total:                                     0.749 (MW) /      5.990 (MB)

	Size of irrep 0 of tIjAb amplitudes:       0.030 (MW) /      0.242 (MB)
	Size of irrep 1 of tIjAb amplitudes:       0.005 (MW) /      0.036 (MB)
	Size of irrep 2 of tIjAb amplitudes:       0.012 (MW) /      0.099 (MB)
	Size of irrep 3 of tIjAb amplitudes:       0.018 (MW) /      0.140 (MB)
	Total:                                     0.065 (MW) /      0.518 (MB)

	Nuclear Rep. energy          =     23.60716364362786
	SCF energy                   =   -129.17862192024401
	One-electron energy          =    -68.72669032724451
	Two-electron (AA) energy     =      8.25859130981273
	Two-electron (BB) energy     =      4.74726331615033
	Two-electron (AB) energy     =     17.73545029953956
	Two-electron energy          =     30.74130492550262
	Reference energy             =   -129.17862192024319

*** tstop() called on cqc05 at Thu Aug 20 20:03:28 2020
Module time:
	user time   =       1.43 seconds =       0.02 minutes
	system time =       0.67 seconds =       0.01 minutes
	total time  =          2 seconds =       0.03 minutes
Total time:
	user time   =       5.18 seconds =       0.09 minutes
	system time =       0.85 seconds =       0.01 minutes
	total time  =          5 seconds =       0.08 minutes

*** tstart() called on cqc05
*** at Thu Aug 20 20:03:28 2020

            **************************
            *                        *
            *        CCENERGY        *
            *                        *
            **************************

    Nuclear Rep. energy (wfn)     =   23.607163643627864
    SCF energy          (wfn)     = -129.178621920244012
    Reference energy    (file100) = -129.178621920243188

    Input parameters:
    -----------------
    Wave function   =     CCSD
    Reference wfn   =     UHF
    Brueckner       =     No
    Memory (Mbytes) =     250000.0
    Maxiter         =     50
    R_Convergence   =     1.0e-07
    E_Convergence   =     1.0e-06
    Restart         =     Yes
    DIIS            =     Yes
    AO Basis        =     NONE
    ABCD            =     NEW
    Cache Level     =     2
    Cache Type      =     LRU
    Print Level     =     1
    Num. of threads =     4
    # Amps to Print =     10
    Print MP2 Amps? =     No
    Analyze T2 Amps =     No
    Print Pair Ener =     No
    Local CC        =     No
    SCS-MP2         =     False
    SCSN-MP2        =     False
    SCS-CCSD        =     False

MP2 correlation energy -0.4390280774914848
                Solving CC Amplitude Equations
                ------------------------------
  Iter             Energy              RMS        T1Diag      D1Diag    New D1Diag    D2Diag
  ----     ---------------------    ---------   ----------  ----------  ----------   --------
     0        -0.439028077491596    0.000e+00    0.000000    0.000000    0.000000    0.000000
     1        -0.406544032410125    1.372e-01    0.031597    0.000000    0.000000    0.000000
     2        -0.428555568893776    5.443e-02    0.029372    0.000000    0.000000    0.000000
     3        -0.433827411951093    2.747e-02    0.038180    0.000000    0.000000    0.000000
     4        -0.433675323186957    1.043e-02    0.041908    0.000000    0.000000    0.000000
     5        -0.433667025969611    5.197e-03    0.044026    0.000000    0.000000    0.000000
     6        -0.433671176428559    2.537e-03    0.044740    0.000000    0.000000    0.000000
     7        -0.433686584749503    1.412e-03    0.045070    0.000000    0.000000    0.000000
     8        -0.433713325438930    7.755e-04    0.045251    0.000000    0.000000    0.000000
     9        -0.433689318266010    4.095e-04    0.045300    0.000000    0.000000    0.000000
    10        -0.433688969332405    2.110e-04    0.045330    0.000000    0.000000    0.000000
    11        -0.433691128297526    9.776e-05    0.045343    0.000000    0.000000    0.000000
    12        -0.433691785924979    4.581e-05    0.045342    0.000000    0.000000    0.000000
    13        -0.433693115734070    2.540e-05    0.045344    0.000000    0.000000    0.000000
    14        -0.433692121241704    1.264e-05    0.045343    0.000000    0.000000    0.000000
    15        -0.433692278933863    5.215e-06    0.045343    0.000000    0.000000    0.000000
    16        -0.433692174975315    2.317e-06    0.045343    0.000000    0.000000    0.000000
    17        -0.433692254061784    1.240e-06    0.045343    0.000000    0.000000    0.000000
    18        -0.433692274338924    7.081e-07    0.045343    0.000000    0.000000    0.000000
    19        -0.433692282467902    4.434e-07    0.045343    0.000000    0.000000    0.000000
    20        -0.433692279227466    2.779e-07    0.045343    0.000000    0.000000    0.000000
    21        -0.433692278758131    1.415e-07    0.045343    0.000000    0.000000    0.000000
    22        -0.433692280652867    5.550e-08    0.045343    0.000000    0.000000    0.000000
    22        -0.433692280652867    5.550e-08    0.045343    0.000000    0.000000    0.000000

    Iterations converged.

    CCSD corr. energy   =   -0.433692280652867
    PPL corr. energy    =    0.109603299519795
    OS PPL corr. energy =    0.088574722566133
    SS PPL corr. energy =    0.021028576953670
    Largest TIA Amplitudes:
              4  42         0.0676802624
              4  43         0.0482337655
              3   0        -0.0432801022
              3   2        -0.0397241852
              4  46         0.0222939134
              3   1         0.0197174007
              6  63        -0.0193402680
              5  63        -0.0174987529
              6  64        -0.0162176911
              4  48         0.0146905520

    Largest Tia Amplitudes:
              4  65         0.0654539875
              4  64         0.0451976492
              4  68         0.0218709817
              3  49         0.0213894688
              3  47         0.0202295546
              4  66         0.0191472891
              4  69         0.0151916675
              3  44         0.0151142128
              4  70         0.0142715943
              1   5         0.0139441036

    Largest TIJAB Amplitudes:
      4   2  42   4         0.0297501547
      4   2  42   5        -0.0208692743
      4   2  42   8        -0.0200114832
      6   4  68  42        -0.0145585435
      4   2  43   4         0.0141775944
      4   2  43   8        -0.0124066174
      4   2  43   5        -0.0118918496
      4   3  42   1        -0.0117490570
      4   2  44   4         0.0115873861
      4   3  43   1        -0.0115692446

      * MP2 total energy                      = -129.617649997734674
      * CCSD total energy                     = -129.612314200896066
*** Psi4 exiting successfully. Buy a developer a beer!
