                               Psi4 1.2a1.dev939

  ==> Input File <==

--------------------------------------------------------------------------
# Any line starting with the # character is a comment line
memory 250000 mb
molecule molecule{
-1 3
N          0.0000000000        0.0000000000        0.6693287680
O          0.0000000000        0.0000000000       -0.5859649271
}

set {
  reference uhf
  basis aug-cc-pv(5+d)z
  scf_type OUT_OF_CORE
  freeze_core true
}

energy('ccsd')
--------------------------------------------------------------------------

    Molecular point group: c2v

    Geometry (in Angstrom), charge = -1, multiplicity = 3:

       Center              X                  Y                   Z               Mass
    ------------   -----------------  -----------------  -----------------  -----------------
           N          0.000000000000     0.000000000000     0.669322057790    14.003074004780
           O          0.000000000000     0.000000000000    -0.585971637310    15.994914619560

  Charge       = -1
  Multiplicity = 3
  Basis Set: AUG-CC-PV(5+D)Z
    Blend: AUG-CC-PV(5+D)Z

    Orbital Energies (a.u.)
    -----------------------

    Alpha Occupied:

       1A1   -20.562568     2A1   -15.617293     3A1    -1.386521
       4A1    -0.847271     1B1    -0.605329     5A1    -0.530928
       1B2    -0.466722     2B1    -0.325268     6A1     0.060985

    Alpha Virtual:

       2B2     0.169100     7A1     0.180281     3B1     0.189976
       3B2     0.206883     8A1     0.246794     4B1     0.250295
       4B2     0.254343     9A1     0.352274     1A2     0.413255
      10A1     0.413289    11A1     0.440222     5B1     0.451439
       5B2     0.451989     6B1     0.497722    12A1     0.507203
       6B2     0.516858    13A1     0.606193     2A2     0.613451
      14A1     0.614304     7B1     0.660136     7B2     0.670794
      15A1     0.698352    16A1     0.770428     8B1     0.815036
       8B2     0.820374    17A1     0.877593     9B1     0.905208
       9B2     0.905209     3A2     1.000355    18A1     1.000590
      10B2     1.012419    10B1     1.012764    19A1     1.017724
       4A2     1.060014    20A1     1.060555    11B1     1.230039
      11B2     1.230071    12B1     1.241743    21A1     1.245337
      12B2     1.251669    22A1     1.344608     5A2     1.344663
      23A1     1.398354    13B1     1.429439    13B2     1.436915
      24A1     1.462501    14B1     1.531731    14B2     1.560596
      25A1     1.633117     6A2     1.633279    26A1     1.672390
      15B1     1.731790    15B2     1.737514    27A1     1.944584
      16B1     2.189955    16B2     2.194380    28A1     2.256230
       7A2     2.256231    29A1     2.330033    17B1     2.382029
      17B2     2.382031     8A2     2.458342    30A1     2.458832
      18B1     2.465211    18B2     2.465237    19B1     2.507733
      19B2     2.510906     9A2     2.522852    31A1     2.523016
      32A1     2.627200    33A1     2.681266    20B2     2.759931
      20B1     2.761308    34A1     2.796357    10A2     2.796634
      35A1     2.827138    11A2     2.867472    36A1     2.867473
      21B2     3.051985    21B1     3.051988    22B2     3.124186
      22B1     3.130814    37A1     3.226842    12A2     3.228117
      38A1     3.239114    23B2     3.338382    23B1     3.342139
      24B2     3.387482    24B1     3.387495    13A2     3.466475
      39A1     3.466507    40A1     3.502403    25B1     3.796384
      25B2     3.812478    41A1     3.994262    42A1     4.048029
      26B2     4.161710    26B1     4.163775    14A2     4.264312
      43A1     4.264382    44A1     4.627805    27B1     4.830008
      27B2     4.830008    15A2     4.969598    45A1     4.969598
      28B1     5.037705    28B2     5.038181    29B2     5.230931
      29B1     5.231253    46A1     5.380640    30B2     5.511769
      30B1     5.511770    47A1     5.639478    16A2     5.639624
      31B2     5.738860    48A1     5.742528    17A2     5.742528
      31B1     5.750446    49A1     5.771151    32B2     5.789749
      32B1     5.789828    18A2     5.954909    50A1     5.954911
      33B2     5.964114    33B1     5.964115    51A1     6.037094
      19A2     6.065389    52A1     6.066454    34B2     6.110791
      34B1     6.125661    53A1     6.271932    35B2     6.355458
      35B1     6.355458    36B2     6.749771    36B1     6.762477
      20A2     6.803898    54A1     6.803898    55A1     7.082226
      21A2     7.160806    56A1     7.161120    22A2     7.227661
      57A1     7.227661    37B2     7.344193    37B1     7.349752
      38B2     7.352897    38B1     7.358978    58A1     7.434257
      23A2     7.437024    59A1     7.455880    39B2     7.580172
      39B1     7.580173    40B2     7.754158    40B1     7.763407
      41B2     8.037555    41B1     8.037556    60A1     8.173447
      24A2     8.173886    61A1     8.216231    25A2     8.363216
      62A1     8.363542    42B2     8.502671    42B1     8.514000
      63A1     8.515561    64A1     9.037779    65A1     9.503262
      43B2     9.662260    43B1     9.677216    26A2     9.912260
      66A1     9.912373    44B2    10.736979    44B1    10.748780
      67A1    11.879468    45B2    12.458663    45B1    12.458663
      68A1    12.538069    27A2    12.538069    69A1    12.628910
      46B2    12.696711    46B1    12.701531    47B2    12.752784
      47B1    12.752811    70A1    13.070365    28A2    13.070429
      48B2    13.353919    48B1    13.371966    71A1    13.450638
      72A1    14.300074    49B2    14.595579    49B1    14.595580
      73A1    14.695641    29A2    14.695641    50B2    14.840428
      50B1    14.840504    74A1    14.850112    30A2    14.928871
      75A1    14.930590    51B2    14.955417    51B1    14.976328
      31A2    15.295448    76A1    15.295692    52B2    16.005281
      52B1    16.017430    53B2    16.336383    53B1    16.336383
      77A1    16.481850    32A2    16.481850    54B2    16.766043
      54B1    16.783743    55B2    16.892714    55B1    16.892748
      78A1    16.945441    33A2    17.104083    79A1    17.104171
      80A1    17.319893    56B2    17.769880    56B1    17.790065
      34A2    17.941890    81A1    17.941932    82A1    18.185989
      57B2    18.839105    57B1    18.852908    83A1    19.179846
      35A2    19.179846    58B2    19.312329    58B1    19.312330
      59B2    19.353458    59B1    19.353462    84A1    19.380736
      36A2    19.719966    85A1    19.720014    86A1    19.922020
      37A2    19.922123    60B2    19.955211    60B1    19.977515
      87A1    20.411810    61B2    21.528276    61B1    21.548403
      88A1    22.522975    38A2    22.522980    89A1    23.063295
      62B2    23.837801    62B1    23.854985    90A1    24.504286
      91A1    51.056845    92A1    64.540087

    Beta Occupied:

       1A1   -20.541705     2A1   -15.589803     3A1    -1.332470
       4A1    -0.749984     5A1    -0.496482     1B2    -0.438280
       1B1    -0.414355

    Beta Virtual:

       2B2     0.180994     6A1     0.182556     2B1     0.189508
       7A1     0.209245     3B2     0.223379     3B1     0.263908
       8A1     0.284885     4B2     0.286091     4B1     0.290578
       9A1     0.372073    10A1     0.417943     1A2     0.417965
      11A1     0.447609     5B2     0.457599     5B1     0.460368
      12A1     0.519824     6B2     0.520115     6B1     0.540782
      13A1     0.616025     2A2     0.620326    14A1     0.621065
       7B2     0.682610     7B1     0.690651    15A1     0.719414
      16A1     0.786732     8B2     0.826731     8B1     0.832931
      17A1     0.890910     9B2     0.907588     9B1     0.907592
      18A1     1.010054     3A2     1.011632    10B2     1.013242
      10B1     1.021795    19A1     1.024047     4A2     1.068558
      20A1     1.068915    11B2     1.232684    11B1     1.232727
      21A1     1.250342    12B2     1.253285    12B1     1.271413
      22A1     1.351816     5A2     1.351957    23A1     1.403142
      13B2     1.439742    13B1     1.451919    24A1     1.472031
      14B2     1.564148    14B1     1.595090    25A1     1.645017
       6A2     1.645869    26A1     1.679176    15B2     1.746391
      15B1     1.757568    27A1     1.957827    16B2     2.200040
      16B1     2.216655     7A2     2.259474    28A1     2.259474
      29A1     2.338895    17B2     2.390896    17B1     2.390906
       8A2     2.468473    30A1     2.468966    18B2     2.471492
      18B1     2.471550    19B2     2.511479    19B1     2.533978
      31A1     2.554527     9A2     2.555455    32A1     2.630049
      33A1     2.693205    20B2     2.762510    20B1     2.784036
      10A2     2.807411    34A1     2.807780    35A1     2.845151
      11A2     2.869091    36A1     2.869092    21B2     3.058621
      21B1     3.058639    22B2     3.126038    22B1     3.140558
      37A1     3.232021    12A2     3.237245    38A1     3.245529
      23B2     3.341377    23B1     3.357840    24B2     3.390380
      24B1     3.390399    39A1     3.490280    13A2     3.492249
      40A1     3.517621    25B2     3.817753    25B1     3.858329
      41A1     4.002950    42A1     4.061760    26B2     4.168011
      26B1     4.194687    14A2     4.276250    43A1     4.277070
      44A1     4.643290    27B2     4.836092    27B1     4.836092
      15A2     4.972992    45A1     4.972992    28B2     5.043396
      28B1     5.077331    29B2     5.242195    29B1     5.269058
      46A1     5.394311    30B2     5.516890    30B1     5.516909
      47A1     5.650125    16A2     5.650670    31B2     5.739405
      48A1     5.758210    17A2     5.758211    31B1     5.761823
      49A1     5.776428    32B2     5.799549    32B1     5.799925
      50A1     5.964560    18A2     5.964772    33B2     5.993645
      33B1     5.993666    51A1     6.043321    19A2     6.090741
      52A1     6.098357    34B2     6.114600    34B1     6.143529
      53A1     6.281033    35B2     6.358029    35B1     6.358029
      36B2     6.752490    36B1     6.781119    20A2     6.806305
      54A1     6.806305    55A1     7.093007    21A2     7.190940
      56A1     7.191743    22A2     7.236658    57A1     7.236659
      37B2     7.346559    37B1     7.358249    38B2     7.362044
      38B1     7.370113    58A1     7.439516    23A2     7.446765
      59A1     7.466787    39B2     7.594256    39B1     7.594260
      40B2     7.759184    40B1     7.786748    41B2     8.044798
      41B1     8.044804    60A1     8.192464    24A2     8.194097
      61A1     8.230809    25A2     8.378277    62A1     8.379023
      42B2     8.508343    63A1     8.522707    42B1     8.541916
      64A1     9.055256    65A1     9.511337    43B2     9.666855
      43B1     9.694675    26A2     9.930498    66A1     9.930844
      44B2    10.743081    44B1    10.772621    67A1    11.895357
      45B2    12.475429    45B1    12.475429    68A1    12.550810
      27A2    12.550810    69A1    12.641875    46B2    12.702429
      46B1    12.745192    47B2    12.762907    47B1    12.764625
      70A1    13.078538    28A2    13.078760    48B2    13.356897
      48B1    13.391982    71A1    13.461381    72A1    14.313853
      49B2    14.629115    49B1    14.629122    73A1    14.721544
      29A2    14.721548    74A1    14.857636    50B2    14.858424
      50B1    14.858926    30A2    14.946305    75A1    14.951024
      51B2    14.960408    51B1    14.996141    31A2    15.314973
      76A1    15.315812    52B2    16.014784    52B1    16.048060
      53B2    16.346917    53B1    16.346917    77A1    16.489800
      32A2    16.489800    54B2    16.772839    54B1    16.807677
      55B2    16.899125    55B1    16.899235    78A1    16.953021
      33A2    17.112020    79A1    17.112243    80A1    17.329355
      56B2    17.773710    56B1    17.803170    34A2    17.970763
      81A1    17.970860    82A1    18.197002    57B2    18.843511
      57B1    18.879899    83A1    19.197821    35A2    19.197821
      58B2    19.333493    58B1    19.333496    59B2    19.369519
      59B1    19.369530    84A1    19.390007    36A2    19.733563
      85A1    19.733721    86A1    19.935441    37A2    19.935571
      60B2    19.960157    60B1    19.991259    87A1    20.420490
      61B2    21.534501    61B1    21.564687    88A1    22.546059
      38A2    22.546061    89A1    23.070161    62B2    23.844224
      62B1    23.872590    90A1    24.511471    91A1    51.067707
      92A1    64.548733

    Final Occupation by Irrep:
             A1    A2    B1    B2
    DOCC [     5,    0,    1,    1 ]
    SOCC [     1,    0,    1,    0 ]

  Energy converged.

  @UHF Final Energy:  -129.21193606754491

   => Energetics <=

    Nuclear Repulsion Energy =             23.6071636436278673
    One-Electron Energy =                -225.7942045102699922
    Two-Electron Energy =                  72.9751047990972239
    PCM Polarization Energy =               0.0000000000000000
    Total Energy =                       -129.2119360675449116

    Alert: EFP and PCM quantities not currently incorporated into SCF psivars.
  UHF NO Occupations:
  HONO-2 :    1 B1 1.9947994
  HONO-1 :    6 A1 1.0000000
  HONO-0 :    2 B1 1.0000000
  LUNO+0 :    3 B1 0.0052006
  LUNO+1 :    2 B2 0.0026754
  LUNO+2 :    7 A1 0.0022786
  LUNO+3 :    8 A1 0.0003699

Properties will be evaluated at   0.000000,   0.000000,   0.000000 Bohr

Properties computed using the SCF density matrix

  Nuclear Dipole Moment: (a.u.)
     X:     0.0000      Y:     0.0000      Z:    -0.0048

  Electronic Dipole Moment: (a.u.)
     X:     0.0000      Y:     0.0000      Z:     3.4394

  Dipole Moment: (a.u.)
     X:     0.0000      Y:     0.0000      Z:     3.4347     Total:     3.4347

  Dipole Moment: (Debye)
     X:     0.0000      Y:     0.0000      Z:     8.7301     Total:     8.7301

*** tstop() called on n412-019.vsc4.prov at Fri Oct 30 14:17:47 2020
Module time:
	user time   =     596.30 seconds =       9.94 minutes
	system time =      30.45 seconds =       0.51 minutes
	total time  =        253 seconds =       4.22 minutes
Total time:
	user time   =     596.30 seconds =       9.94 minutes
	system time =      30.45 seconds =       0.51 minutes
	total time  =        253 seconds =       4.22 minutes

*** tstart() called on n412-019.vsc4.prov
*** at Fri Oct 30 14:17:47 2020

	Wfn Parameters:
	--------------------
	Wavefunction         = CCSD
	Number of irreps     = 4
	Number of MOs        = 254
	Number of active MOs = 252
	AO-Basis             = NONE
	Semicanonical        = false
	Reference            = UHF
	Print Level          = 1

	IRREP	# MOs	# FZDC	# DOCC	# SOCC	# VIRT	# FZVR
	-----	-----	------	------	------	------	------
	 A1	   92	    2	    3	    1	    86	    0
	 A2	   38	    0	    0	    0	    38	    0
	 B1	   62	    0	    1	    1	    60	    0
	 B2	   62	    0	    1	    0	    61	    0
	Transforming integrals...
	IWL integrals will be deleted.
	(OO|OO)...
	Presorting SO-basis two-electron integrals.
	Sorting File: SO Ints (nn|nn) nbuckets = 1
	Transforming the one-electron integrals and constructing Fock matrices
	Starting AA/AB first half-transformation.
	Sorting AA/AB half-transformed integrals.
	Starting BB first half-transformation.
	Sorting BB half-transformed integrals.
	First half integral transformation complete.
	Starting AA second half-transformation.
	Starting AB second half-transformation.
	Starting BB second half-transformation.
	Two-electron integral transformation complete.
	(OO|OV)...
	Starting AA second half-transformation.
	Starting AB second half-transformation.
	Starting BB second half-transformation.
	Two-electron integral transformation complete.
	(OO|VV)...
	Starting AA second half-transformation.
	Starting AB second half-transformation.
	Starting BB second half-transformation.
	Two-electron integral transformation complete.
	(OV|OO)...
	Starting AA/AB first half-transformation.
	Sorting AA/AB half-transformed integrals.
	Starting BB first half-transformation.
	Sorting BB half-transformed integrals.
	First half integral transformation complete.
	Starting AA second half-transformation.
	Starting AB second half-transformation.
	Starting BB second half-transformation.
	Two-electron integral transformation complete.
	(OV|OV)...
	Starting AA second half-transformation.
	Starting AB second half-transformation.
	Starting BB second half-transformation.
	Two-electron integral transformation complete.
	(OV|VV)...
	Starting AA second half-transformation.
	Starting AB second half-transformation.
	Starting BB second half-transformation.
	Two-electron integral transformation complete.
	(VV|OO)...
	Starting AA/AB first half-transformation.
	Sorting AA/AB half-transformed integrals.
	Starting BB first half-transformation.
	Sorting BB half-transformed integrals.
	First half integral transformation complete.
	Starting AA second half-transformation.
	Starting AB second half-transformation.
	Starting BB second half-transformation.
	Two-electron integral transformation complete.
	(VV|OV)...
	Starting AA second half-transformation.
	Starting AB second half-transformation.
	Starting BB second half-transformation.
	Two-electron integral transformation complete.
	(VV|VV)...
	Starting AA second half-transformation.
	Starting AB second half-transformation.
	Starting BB second half-transformation.
	Two-electron integral transformation complete.
	Frozen core energy     =   -114.80297640012078

	Size of irrep 0 of <AB|CD> integrals:     63.330 (MW) /    506.638 (MB)
	Size of irrep 1 of <AB|CD> integrals:     47.997 (MW) /    383.977 (MB)
	Size of irrep 2 of <AB|CD> integrals:     55.920 (MW) /    447.364 (MB)
	Size of irrep 3 of <AB|CD> integrals:     56.641 (MW) /    453.125 (MB)
	Total:                                   223.888 (MW) /   1791.105 (MB)

	Size of irrep 0 of <ab|cd> integrals:     65.675 (MW) /    525.399 (MB)
	Size of irrep 1 of <ab|cd> integrals:     49.379 (MW) /    395.030 (MB)
	Size of irrep 2 of <ab|cd> integrals:     58.141 (MW) /    465.125 (MB)
	Size of irrep 3 of <ab|cd> integrals:     58.141 (MW) /    465.125 (MB)
	Total:                                   231.335 (MW) /   1850.678 (MB)

	Size of irrep 0 of <Ab|Cd> integrals:    265.918 (MW) /   2127.346 (MB)
	Size of irrep 1 of <Ab|Cd> integrals:    194.742 (MW) /   1557.936 (MB)
	Size of irrep 2 of <Ab|Cd> integrals:    228.070 (MW) /   1824.563 (MB)
	Size of irrep 3 of <Ab|Cd> integrals:    229.553 (MW) /   1836.422 (MB)
	Total:                                   918.283 (MW) /   7346.268 (MB)

	Size of irrep 0 of <IA|BC> integrals:      8.485 (MW) /     67.876 (MB)
	Size of irrep 1 of <IA|BC> integrals:      4.628 (MW) /     37.023 (MB)
	Size of irrep 2 of <IA|BC> integrals:      6.730 (MW) /     53.842 (MB)
	Size of irrep 3 of <IA|BC> integrals:      6.111 (MW) /     48.889 (MB)
	Total:                                    25.954 (MW) /    207.630 (MB)

	Size of irrep 0 of <ia|bc> integrals:      6.302 (MW) /     50.418 (MB)
	Size of irrep 1 of <ia|bc> integrals:      3.317 (MW) /     26.534 (MB)
	Size of irrep 2 of <ia|bc> integrals:      4.697 (MW) /     37.576 (MB)
	Size of irrep 3 of <ia|bc> integrals:      4.697 (MW) /     37.576 (MB)
	Total:                                    19.013 (MW) /    152.104 (MB)

	Size of irrep 0 of <Ia|Bc> integrals:      8.659 (MW) /     69.272 (MB)
	Size of irrep 1 of <Ia|Bc> integrals:      4.675 (MW) /     37.399 (MB)
	Size of irrep 2 of <Ia|Bc> integrals:      6.887 (MW) /     55.092 (MB)
	Size of irrep 3 of <Ia|Bc> integrals:      6.166 (MW) /     49.332 (MB)
	Total:                                    26.387 (MW) /    211.095 (MB)

	Size of irrep 0 of <iA|bC> integrals:      6.180 (MW) /     49.443 (MB)
	Size of irrep 1 of <iA|bC> integrals:      3.279 (MW) /     26.235 (MB)
	Size of irrep 2 of <iA|bC> integrals:      4.591 (MW) /     36.728 (MB)
	Size of irrep 3 of <iA|bC> integrals:      4.651 (MW) /     37.211 (MB)
	Total:                                    18.702 (MW) /    149.617 (MB)

	Size of irrep 0 of tIjAb amplitudes:       0.245 (MW) /      1.957 (MB)
	Size of irrep 1 of tIjAb amplitudes:       0.042 (MW) /      0.335 (MB)
	Size of irrep 2 of tIjAb amplitudes:       0.151 (MW) /      1.208 (MB)
	Size of irrep 3 of tIjAb amplitudes:       0.106 (MW) /      0.848 (MB)
	Total:                                     0.544 (MW) /      4.348 (MB)

	Nuclear Rep. energy          =     23.60716364362787
	SCF energy                   =   -129.21193606754491
	One-electron energy          =    -68.49962094829263
	Two-electron (AA) energy     =      8.11145120039003
	Two-electron (BB) energy     =      4.75198332712623
	Two-electron (AB) energy     =     17.62006310966859
	Two-electron energy          =     30.48349763718485
	Reference energy             =   -129.21193606760067

*** tstop() called on n412-019.vsc4.prov at Fri Oct 30 14:20:39 2020
Module time:
	user time   =    1900.14 seconds =      31.67 minutes
	system time =      70.45 seconds =       1.17 minutes
	total time  =        172 seconds =       2.87 minutes
Total time:
	user time   =    2496.53 seconds =      41.61 minutes
	system time =     100.90 seconds =       1.68 minutes
	total time  =        425 seconds =       7.08 minutes

*** tstart() called on n412-019.vsc4.prov
*** at Fri Oct 30 14:20:39 2020

      * MP2 total energy                      = -129.683512158764302
      * CCSD total energy                     = -129.671742840246253
*** Psi4 exiting successfully. Buy a developer a beer!
