                               Psi4 1.2a1.dev938

  ==> Input File <==

--------------------------------------------------------------------------
# Any line starting with the # character is a comment line
memory 250000 mb
molecule molecule{
-1 3
N          0.0000000000        0.0000000000        0.6693287680
O          0.0000000000        0.0000000000       -0.5859649271
}

set {
  reference uhf
  basis aug-cc-pv(q+d)z
  scf_type OUT_OF_CORE
  freeze_core true
}

energy('ccsd')
--------------------------------------------------------------------------

    Molecular point group: c2v

    Geometry (in Angstrom), charge = -1, multiplicity = 3:

       Center              X                  Y                   Z               Mass
    ------------   -----------------  -----------------  -----------------  -----------------
           N          0.000000000000     0.000000000000     0.669322057790    14.003074004780
           O          0.000000000000     0.000000000000    -0.585971637310    15.994914619560

  Charge       = -1
  Multiplicity = 3
  Basis Set: AUG-CC-PV(Q+D)Z
    Blend: AUG-CC-PV(Q+D)Z

    Orbital Energies (a.u.)
    -----------------------

    Alpha Occupied:

       1A1   -20.551443     2A1   -15.604998     3A1    -1.374478
       4A1    -0.835367     1B1    -0.592758     5A1    -0.519087
       1B2    -0.453699     2B1    -0.312640     6A1     0.072704

    Alpha Virtual:

       2B2     0.184246     7A1     0.207537     3B1     0.223366
       3B2     0.240285     8A1     0.280800     4B1     0.286492
       4B2     0.291132     9A1     0.408068     1A2     0.469011
      10A1     0.469077    11A1     0.517661     5B1     0.531970
       5B2     0.536690    12A1     0.630788     6B1     0.677047
      13A1     0.693937     6B2     0.695294     2A2     0.711390
      14A1     0.711914     7B1     0.775221     7B2     0.791957
      15A1     0.804748    16A1     0.992667     8B1     1.056048
       8B2     1.069508    17A1     1.075473     9B1     1.138231
       9B2     1.138237     3A2     1.216012    18A1     1.216491
      10B1     1.262484    10B2     1.263617    19A1     1.273200
       4A2     1.282004    20A1     1.283885    11B1     1.549227
      11B2     1.553855    21A1     1.567391    12B1     1.610288
      12B2     1.610293     5A2     1.710451    22A1     1.710581
      23A1     1.807543    13B1     1.880459    13B2     1.881235
      24A1     1.919420    14B1     2.005454     6A2     2.024071
      25A1     2.024350    14B2     2.036704    26A1     2.243599
      15B1     2.630136    15B2     2.644730    27A1     2.939786
       7A2     2.939787    28A1     2.953352    29A1     3.003916
      16B1     3.112819    16B2     3.112829    17B1     3.141514
      17B2     3.147356     8A2     3.227179    30A1     3.227774
      18B1     3.242470    18B2     3.242476    19B1     3.276051
      19B2     3.276956    31A1     3.278769     9A2     3.278848
      32A1     3.358061    33A1     3.503073    20B1     3.504329
      20B2     3.504401    10A2     3.712651    34A1     3.712772
      11A2     3.876399    35A1     3.876399    21B2     4.092063
      21B1     4.097337    36A1     4.176349    22B2     4.237467
      22B1     4.237470    37A1     4.343791    12A2     4.358804
      38A1     4.359728    23B2     4.410236    23B1     4.410264
      24B2     4.452106    24B1     4.457290    39A1     4.592325
      13A2     4.618336    40A1     4.619520    41A1     5.107264
      25B2     5.456793    25B1     5.462644    42A1     5.502724
      14A2     5.502814    43A1     5.632076    26B2     6.035469
      26B1     6.040417    44A1     6.817267    45A1     8.298265
      15A2     8.298265    27B2     8.364037    27B1     8.364046
      46A1     8.526860    28B2     8.527037    16A2     8.527734
      28B1     8.532501    47A1     8.658058    29B2     8.682779
      29B1     8.685504    48A1     9.186565    30B1     9.207974
      30B2     9.207975    17A2     9.401722    49A1     9.402092
      31B2     9.681182    31B1     9.690392    18A2     9.734643
      50A1     9.734706    51A1     9.835944    32B2    10.498038
      32B1    10.502273    52A1    10.745282    19A2    10.745282
      33B2    10.926283    33B1    10.926284    53A1    11.151873
      54A1    11.293213    20A2    11.293424    34B2    11.316203
      34B1    11.325689    55A1    11.675670    35B2    11.770829
      35B1    11.787777    36B2    11.979422    36B1    11.979424
      56A1    12.268631    21A2    12.306754    57A1    12.309187
      37B2    12.821310    37B1    12.835141    22A2    12.896696
      58A1    12.896713    59A1    13.762962    38B2    13.985268
      38B1    13.998317    60A1    15.522821    61A1    31.903008
      62A1    43.052209

    Beta Occupied:

       1A1   -20.530185     2A1   -15.577389     3A1    -1.320183
       4A1    -0.737361     5A1    -0.483963     1B2    -0.425673
       1B1    -0.401264

    Beta Virtual:

       2B2     0.199219     6A1     0.209647     2B1     0.215066
       7A1     0.234863     3B2     0.255377     3B1     0.293999
       8A1     0.321610     4B2     0.326046     4B1     0.329357
       9A1     0.428028     1A2     0.475236    10A1     0.475348
      11A1     0.528507     5B2     0.542228     5B1     0.547492
      12A1     0.656409     6B2     0.701004    13A1     0.701307
       2A2     0.718755    14A1     0.719231     6B1     0.719923
       7B2     0.801298     7B1     0.818310    15A1     0.825422
      16A1     1.008792     8B2     1.078835    17A1     1.084889
       8B1     1.087221     9B2     1.142040     9B1     1.142046
      18A1     1.242001     3A2     1.242275    10B2     1.264661
      19A1     1.278092    10B1     1.278347     4A2     1.284877
      20A1     1.288067    11B2     1.556372    11B1     1.574203
      21A1     1.574497    12B2     1.613154    12B1     1.613176
       5A2     1.724167    22A1     1.724207    23A1     1.813232
      13B2     1.883710    13B1     1.896471    24A1     1.927795
       6A2     2.035968    25A1     2.036509    14B2     2.041932
      14B1     2.073929    26A1     2.253825    15B2     2.654178
      15B1     2.683675    27A1     2.946509     7A2     2.946509
      28A1     2.970543    29A1     3.025016    16B2     3.116101
      16B1     3.116178    17B2     3.154549    17B1     3.182617
      30A1     3.250054     8A2     3.250904    18B2     3.265202
      18B1     3.265420    19B2     3.280724    19B1     3.306111
      31A1     3.306609     9A2     3.307233    32A1     3.366460
      20B2     3.507677    33A1     3.516412    20B1     3.535614
      10A2     3.733559    34A1     3.734353    11A2     3.879551
      35A1     3.879551    21B2     4.096507    21B1     4.119778
      36A1     4.188484    22B2     4.250490    22B1     4.250541
      37A1     4.361148    12A2     4.373567    38A1     4.375565
      23B2     4.414703    23B1     4.414788    24B2     4.455223
      24B1     4.474724    39A1     4.605494    13A2     4.647238
      40A1     4.647931    41A1     5.114236    25B2     5.463603
      25B1     5.488166    14A2     5.514446    42A1     5.514557
      43A1     5.643010    26B2     6.041396    26B1     6.071598
      44A1     6.838874    45A1     8.321708    15A2     8.321710
      27B2     8.380114    27B1     8.380206    28B2     8.532264
      46A1     8.537121    16A2     8.540357    28B1     8.572100
      47A1     8.670148    29B2     8.688855    29B1     8.735707
      48A1     9.202896    30B2     9.247951    30B1     9.248010
      17A2     9.429162    49A1     9.432743    31B2     9.684999
      31B1     9.719537    18A2     9.780284    50A1     9.780441
      51A1     9.843675    32B2    10.506551    32B1    10.543835
      52A1    10.759958    19A2    10.759958    33B2    10.936724
      33B1    10.936731    53A1    11.168029    54A1    11.302722
      20A2    11.303100    34B2    11.327825    34B1    11.362201
      55A1    11.686036    35B2    11.776124    35B1    11.805460
      36B2    12.006873    36B1    12.006889    56A1    12.277278
      21A2    12.324622    57A1    12.329527    37B2    12.828219
      37B1    12.855090    22A2    12.930633    58A1    12.930737
      59A1    13.769705    38B2    13.993521    38B1    14.023404
      60A1    15.532259    61A1    31.920456    62A1    43.065659

    Final Occupation by Irrep:
             A1    A2    B1    B2
    DOCC [     5,    0,    1,    1 ]
    SOCC [     1,    0,    1,    0 ]

  Energy converged.

  @UHF Final Energy:  -129.19804533433685

   => Energetics <=

    Nuclear Repulsion Energy =             23.6071636436278638
    One-Electron Energy =                -225.9626350896487281
    Two-Electron Energy =                  73.1574261116840034
    Total Energy =                       -129.1980453343368538

  UHF NO Occupations:
  HONO-2 :    1 B1 1.9948232
  HONO-1 :    2 B1 1.0000000
  HONO-0 :    6 A1 1.0000000
  LUNO+0 :    3 B1 0.0051768
  LUNO+1 :    2 B2 0.0024761
  LUNO+2 :    7 A1 0.0022516
  LUNO+3 :    8 A1 0.0003781

Properties will be evaluated at   0.000000,   0.000000,   0.000000 Bohr

Properties computed using the SCF density matrix

  Nuclear Dipole Moment: (a.u.)
     X:     0.0000      Y:     0.0000      Z:    -0.0048

  Electronic Dipole Moment: (a.u.)
     X:     0.0000      Y:     0.0000      Z:     3.0808

  Dipole Moment: (a.u.)
     X:     0.0000      Y:     0.0000      Z:     3.0760     Total:     3.0760

  Dipole Moment: (Debye)
     X:     0.0000      Y:     0.0000      Z:     7.8184     Total:     7.8184

*** tstop() called on cqc05 at Thu Aug 20 21:26:36 2020
Module time:
	user time   =      22.80 seconds =       0.38 minutes
	system time =       1.56 seconds =       0.03 minutes
	total time  =         24 seconds =       0.40 minutes
Total time:
	user time   =      22.80 seconds =       0.38 minutes
	system time =       1.56 seconds =       0.03 minutes
	total time  =         24 seconds =       0.40 minutes

*** tstart() called on cqc05
*** at Thu Aug 20 21:26:36 2020

	Wfn Parameters:
	--------------------
	Wavefunction         = CCSD
	Number of irreps     = 4
	Number of MOs        = 160
	Number of active MOs = 158
	AO-Basis             = NONE
	Semicanonical        = false
	Reference            = UHF
	Print Level          = 1

	IRREP	# MOs	# FZDC	# DOCC	# SOCC	# VIRT	# FZVR
	-----	-----	------	------	------	------	------
	 A1	   62	    2	    3	    1	    56	    0
	 A2	   22	    0	    0	    0	    22	    0
	 B1	   38	    0	    1	    1	    36	    0
	 B2	   38	    0	    1	    0	    37	    0
	Transforming integrals...
	IWL integrals will be deleted.
	(OO|OO)...
	Presorting SO-basis two-electron integrals.
	Sorting File: SO Ints (nn|nn) nbuckets = 1
	Transforming the one-electron integrals and constructing Fock matrices
	Starting AA/AB first half-transformation.
	Sorting AA/AB half-transformed integrals.
	Starting BB first half-transformation.
	Sorting BB half-transformed integrals.
	First half integral transformation complete.
	Starting AA second half-transformation.
	Starting AB second half-transformation.
	Starting BB second half-transformation.
	Two-electron integral transformation complete.
	(OO|OV)...
	Starting AA second half-transformation.
	Starting AB second half-transformation.
	Starting BB second half-transformation.
	Two-electron integral transformation complete.
	(OO|VV)...
	Starting AA second half-transformation.
	Starting AB second half-transformation.
	Starting BB second half-transformation.
	Two-electron integral transformation complete.
	(OV|OO)...
	Starting AA/AB first half-transformation.
	Sorting AA/AB half-transformed integrals.
	Starting BB first half-transformation.
	Sorting BB half-transformed integrals.
	First half integral transformation complete.
	Starting AA second half-transformation.
	Starting AB second half-transformation.
	Starting BB second half-transformation.
	Two-electron integral transformation complete.
	(OV|OV)...
	Starting AA second half-transformation.
	Starting AB second half-transformation.
	Starting BB second half-transformation.
	Two-electron integral transformation complete.
	(OV|VV)...
	Starting AA second half-transformation.
	Starting AB second half-transformation.
	Starting BB second half-transformation.
	Two-electron integral transformation complete.
	(VV|OO)...
	Starting AA/AB first half-transformation.
	Sorting AA/AB half-transformed integrals.
	Starting BB first half-transformation.
	Sorting BB half-transformed integrals.
	First half integral transformation complete.
	Starting AA second half-transformation.
	Starting AB second half-transformation.
	Starting BB second half-transformation.
	Two-electron integral transformation complete.
	(VV|OV)...
	Starting AA second half-transformation.
	Starting AB second half-transformation.
	Starting BB second half-transformation.
	Two-electron integral transformation complete.
	(VV|VV)...
	Starting AA second half-transformation.
	Starting AB second half-transformation.
	Starting BB second half-transformation.
	Two-electron integral transformation complete.
	Frozen core energy     =   -114.80271511118298

	Size of irrep 0 of <AB|CD> integrals:      9.406 (MW) /     75.252 (MB)
	Size of irrep 1 of <AB|CD> integrals:      6.574 (MW) /     52.593 (MB)
	Size of irrep 2 of <AB|CD> integrals:      8.009 (MW) /     64.071 (MB)
	Size of irrep 3 of <AB|CD> integrals:      8.202 (MW) /     65.620 (MB)
	Total:                                    32.192 (MW) /    257.536 (MB)

	Size of irrep 0 of <ab|cd> integrals:      9.979 (MW) /     79.834 (MB)
	Size of irrep 1 of <ab|cd> integrals:      6.880 (MW) /     55.041 (MB)
	Size of irrep 2 of <ab|cd> integrals:      8.544 (MW) /     68.351 (MB)
	Size of irrep 3 of <ab|cd> integrals:      8.544 (MW) /     68.351 (MB)
	Total:                                    33.947 (MW) /    271.578 (MB)

	Size of irrep 0 of <Ab|Cd> integrals:     40.666 (MW) /    325.329 (MB)
	Size of irrep 1 of <Ab|Cd> integrals:     26.905 (MW) /    215.240 (MB)
	Size of irrep 2 of <Ab|Cd> integrals:     33.086 (MW) /    264.684 (MB)
	Size of irrep 3 of <Ab|Cd> integrals:     33.489 (MW) /    267.915 (MB)
	Total:                                   134.146 (MW) /   1073.168 (MB)

	Size of irrep 0 of <IA|BC> integrals:      2.093 (MW) /     16.743 (MB)
	Size of irrep 1 of <IA|BC> integrals:      1.015 (MW) /      8.123 (MB)
	Size of irrep 2 of <IA|BC> integrals:      1.573 (MW) /     12.588 (MB)
	Size of irrep 3 of <IA|BC> integrals:      1.421 (MW) /     11.364 (MB)
	Total:                                     6.102 (MW) /     48.818 (MB)

	Size of irrep 0 of <ia|bc> integrals:      1.585 (MW) /     12.683 (MB)
	Size of irrep 1 of <ia|bc> integrals:      0.734 (MW) /      5.876 (MB)
	Size of irrep 2 of <ia|bc> integrals:      1.111 (MW) /      8.886 (MB)
	Size of irrep 3 of <ia|bc> integrals:      1.111 (MW) /      8.886 (MB)
	Total:                                     4.541 (MW) /     36.331 (MB)

	Size of irrep 0 of <Ia|Bc> integrals:      2.162 (MW) /     17.294 (MB)
	Size of irrep 1 of <Ia|Bc> integrals:      1.032 (MW) /      8.258 (MB)
	Size of irrep 2 of <Ia|Bc> integrals:      1.634 (MW) /     13.069 (MB)
	Size of irrep 3 of <Ia|Bc> integrals:      1.441 (MW) /     11.528 (MB)
	Total:                                     6.269 (MW) /     50.148 (MB)

	Size of irrep 0 of <iA|bC> integrals:      1.537 (MW) /     12.295 (MB)
	Size of irrep 1 of <iA|bC> integrals:      0.721 (MW) /      5.768 (MB)
	Size of irrep 2 of <iA|bC> integrals:      1.070 (MW) /      8.559 (MB)
	Size of irrep 3 of <iA|bC> integrals:      1.094 (MW) /      8.750 (MB)
	Total:                                     4.421 (MW) /     35.372 (MB)

	Size of irrep 0 of tIjAb amplitudes:       0.096 (MW) /      0.765 (MB)
	Size of irrep 1 of tIjAb amplitudes:       0.016 (MW) /      0.124 (MB)
	Size of irrep 2 of tIjAb amplitudes:       0.058 (MW) /      0.460 (MB)
	Size of irrep 3 of tIjAb amplitudes:       0.041 (MW) /      0.324 (MB)
	Total:                                     0.209 (MW) /      1.674 (MB)

	Nuclear Rep. energy          =     23.60716364362786
	SCF energy                   =   -129.19804533433685
	One-electron energy          =    -68.62121953153672
	Two-electron (AA) energy     =      8.18757249807996
	Two-electron (BB) energy     =      4.75018620525090
	Two-electron (AB) energy     =     17.68096696143104
	Two-electron energy          =     30.61872566476190
	Reference energy             =   -129.19804533432995

*** tstop() called on cqc05 at Thu Aug 20 21:26:58 2020
Module time:
	user time   =      13.11 seconds =       0.22 minutes
	system time =       8.70 seconds =       0.15 minutes
	total time  =         22 seconds =       0.37 minutes
Total time:
	user time   =      35.91 seconds =       0.60 minutes
	system time =      10.26 seconds =       0.17 minutes
	total time  =         46 seconds =       0.77 minutes

*** tstart() called on cqc05
*** at Thu Aug 20 21:26:58 2020

            **************************
            *                        *
            *        CCENERGY        *
            *                        *
            **************************

    Nuclear Rep. energy (wfn)     =   23.607163643627864
    SCF energy          (wfn)     = -129.198045334336854
    Reference energy    (file100) = -129.198045334329947

    Input parameters:
    -----------------
    Wave function   =     CCSD
    Reference wfn   =     UHF
    Brueckner       =     No
    Memory (Mbytes) =     250000.0
    Maxiter         =     50
    R_Convergence   =     1.0e-07
    E_Convergence   =     1.0e-06
    Restart         =     Yes
    DIIS            =     Yes
    AO Basis        =     NONE
    ABCD            =     NEW
    Cache Level     =     2
    Cache Type      =     LRU
    Print Level     =     1
    Num. of threads =     4
    # Amps to Print =     10
    Print MP2 Amps? =     No
    Analyze T2 Amps =     No
    Print Pair Ener =     No
    Local CC        =     No
    SCS-MP2         =     False
    SCSN-MP2        =     False
    SCS-CCSD        =     False

MP2 correlation energy -0.4628472649790199
                Solving CC Amplitude Equations
                ------------------------------
  Iter             Energy              RMS        T1Diag      D1Diag    New D1Diag    D2Diag
  ----     ---------------------    ---------   ----------  ----------  ----------   --------
     0        -0.462847264981025    0.000e+00    0.000001    0.000000    0.000000    0.000000
     1        -0.426202338524505    1.375e-01    0.031584    0.000000    0.000000    0.000000
     2        -0.448617925948593    5.550e-02    0.029144    0.000000    0.000000    0.000000
     3        -0.453741984737514    2.749e-02    0.037786    0.000000    0.000000    0.000000
     4        -0.453621679315818    1.083e-02    0.041756    0.000000    0.000000    0.000000
     5        -0.453597417243766    5.446e-03    0.043954    0.000000    0.000000    0.000000
     6        -0.453603659764330    2.842e-03    0.044786    0.000000    0.000000    0.000000
     7        -0.453614475533026    1.652e-03    0.045207    0.000000    0.000000    0.000000
     8        -0.453653439152815    8.990e-04    0.045440    0.000000    0.000000    0.000000
     9        -0.453627328998655    4.633e-04    0.045495    0.000000    0.000000    0.000000
    10        -0.453624402973224    2.382e-04    0.045531    0.000000    0.000000    0.000000
    11        -0.453628110341416    1.084e-04    0.045544    0.000000    0.000000    0.000000
    12        -0.453627728620633    5.033e-05    0.045545    0.000000    0.000000    0.000000
    13        -0.453629548162010    2.746e-05    0.045547    0.000000    0.000000    0.000000
    14        -0.453628659965369    1.379e-05    0.045545    0.000000    0.000000    0.000000
    15        -0.453628690853124    5.791e-06    0.045545    0.000000    0.000000    0.000000
    16        -0.453628683341994    2.473e-06    0.045545    0.000000    0.000000    0.000000
    17        -0.453628732420599    1.358e-06    0.045545    0.000000    0.000000    0.000000
    18        -0.453628757817522    8.123e-07    0.045546    0.000000    0.000000    0.000000
    19        -0.453628764937646    5.116e-07    0.045546    0.000000    0.000000    0.000000
    20        -0.453628753016504    2.823e-07    0.045546    0.000000    0.000000    0.000000
    21        -0.453628757976811    1.407e-07    0.045546    0.000000    0.000000    0.000000
    22        -0.453628757070616    6.333e-08    0.045546    0.000000    0.000000    0.000000

      * MP2 total energy                      = -129.660892599308966
      * CCSD total energy                     = -129.651674091400565
*** Psi4 exiting successfully. Buy a developer a beer!
