                               Psi4 1.2a1.dev939

  ==> Input File <==

--------------------------------------------------------------------------
# Any line starting with the # character is a comment line
memory 250000 mb
molecule molecule{
-1 3
N          0.0000000000        0.0000000000        0.6693287680
O          0.0000000000        0.0000000000       -0.5859649271
}

set {
  reference uhf
  basis aug-cc-pv(6+d)z
  scf_type OUT_OF_CORE
  freeze_core true
}

energy('ccsd')
--------------------------------------------------------------------------

    Molecular point group: c2v

    Geometry (in Angstrom), charge = -1, multiplicity = 3:

       Center              X                  Y                   Z               Mass
    ------------   -----------------  -----------------  -----------------  -----------------
           N          0.000000000000     0.000000000000     0.669322057790    14.003074004780
           O          0.000000000000     0.000000000000    -0.585971637310    15.994914619560

  Charge       = -1
  Multiplicity = 3
  Basis Set: AUG-CC-PV(6+D)Z
    Blend: AUG-CC-PV(6+D)Z

    Orbital Energies (a.u.)
    -----------------------

    Alpha Occupied:

       1A1   -20.575785     2A1   -15.631059     3A1    -1.400016
       4A1    -0.860432     1B2    -0.619010     5A1    -0.543873
       1B1    -0.480730     2B2    -0.338940     6A1     0.050597

    Alpha Virtual:

       2B1     0.153377     7A1     0.154390     3B2     0.165623
       3B1     0.181793     4B2     0.208383     8A1     0.210784
       4B1     0.213294     9A1     0.303140    10A1     0.368607
       1A2     0.368739     5B2     0.378115     5B1     0.379919
      11A1     0.382426     6B2     0.411707    12A1     0.412866
       6B1     0.425060    13A1     0.517396     7B2     0.541015
       2A2     0.541163    14A1     0.541379     7B1     0.549592
      15A1     0.576248    16A1     0.678777     8B2     0.681689
       8B1     0.684204     9B2     0.728443     9B1     0.728444
      17A1     0.752652    18A1     0.802469     3A2     0.802976
      10B1     0.804299    10B2     0.805213    19A1     0.808812
       4A2     0.907797    20A1     0.908136    11B2     1.008604
      21A1     1.023097    11B1     1.023649    12B2     1.023915
      12B1     1.024603    22A1     1.094258     5A2     1.134735
      23A1     1.134884    13B2     1.140029    13B1     1.151041
      24A1     1.158233    14B2     1.248998    14B1     1.261033
      15B2     1.324685    15B1     1.333766    25A1     1.346697
       6A2     1.377954    26A1     1.378080    27A1     1.434398
      16B2     1.712474    16B1     1.712554     7A2     1.732582
      28A1     1.732582    29A1     1.827996    17B1     1.886608
      17B2     1.886608     8A2     1.889099    30A1     1.889350
      18B2     1.908003    18B1     1.908008    31A1     1.943863
      19B1     1.982705    19B2     1.985117    32A1     2.038403
       9A2     2.039993    33A1     2.066735    20B2     2.171473
      20B1     2.176693    34A1     2.242425    10A2     2.242460
      35A1     2.289985    11A2     2.289985    36A1     2.335679
      21B2     2.438402    21B1     2.438403    37A1     2.471359
      22B2     2.478994    22B1     2.489112    23B2     2.562893
      23B1     2.567003    38A1     2.573317    12A2     2.574009
      39A1     2.583573    24B1     2.729274    24B2     2.729276
      13A2     2.790427    40A1     2.790486    25B2     2.849973
      25B1     2.854589    41A1     2.975854    26B2     3.081632
      26B1     3.086458    42A1     3.155899    27B1     3.344196
      27B2     3.349892    43A1     3.418328    14A2     3.437645
      44A1     3.438286    28B2     3.538356    28B1     3.538356
      45A1     3.737708    15A2     3.737708    46A1     4.005261
      29B1     4.021779    29B2     4.023302    47A1     4.141888
      16A2     4.146873    48A1     4.153028    30B2     4.160129
      30B1     4.160129    31B1     4.283907    31B2     4.283919
      32B1     4.305649    32B2     4.312130    49A1     4.321498
      17A2     4.403430    50A1     4.403431    51A1     4.473041
      18A2     4.473054    33B1     4.577913    33B2     4.577927
      34B1     4.625608    34B2     4.625608    19A2     4.662820
      52A1     4.663038    35B1     4.665726    35B2     4.674743
      53A1     4.700311    54A1     5.042497    55A1     5.140807
      20A2     5.140807    36B1     5.176191    36B2     5.184589
      21A2     5.323555    56A1     5.323566    37B1     5.461192
      37B2     5.461200    57A1     5.554285    38B1     5.589434
      22A2     5.590172    58A1     5.590172    38B2     5.598545
      39B1     5.601955    39B2     5.601982    40B1     5.674333
      23A2     5.676164    59A1     5.676330    40B2     5.683926
      60A1     5.836235    41B2     6.041501    41B1     6.042104
      24A2     6.120911    61A1     6.120999    25A2     6.210017
      62A1     6.210072    63A1     6.376070    42B2     6.461794
      42B1     6.461794    43B1     6.614153    43B2     6.620607
      64A1     6.660516    65A1     6.779288    66A1     7.284074
      26A2     7.287789    67A1     7.287789    44B1     7.366750
      44B2     7.366750    45B1     7.606689    45B2     7.615398
      27A2     7.954842    68A1     7.954912    28A2     7.970830
      69A1     7.970831    46B1     8.128167    46B2     8.139306
      70A1     8.181332    47B1     8.440845    47B2     8.440845
      48B1     8.461807    48B2     8.476233    71A1     8.507840
      29A2     8.507840    72A1     8.631858    30A2     8.632827
      49B1     8.633535    49B2     8.633554    73A1     8.707012
      50B1     8.877667    50B2     8.877674    51B1     8.983667
      51B2     8.998871    74A1     9.072509    31A2     9.072562
      75A1     9.439580    76A1     9.501725    32A2     9.501725
      52B1     9.507584    52B2     9.523374    53B1     9.524629
      53B2     9.524833    77A1     9.763512    54B1     9.811860
      54B2     9.811860    78A1    10.092442    33A2    10.092733
      79A1    10.222303    80A1    10.265235    34A2    10.265235
      81A1    10.453712    55B1    10.650282    55B2    10.652283
      56B1    10.666126    56B2    10.682290    35A2    10.831110
      82A1    10.831111    36A2    10.841132    83A1    10.841251
      57B1    10.937636    57B2    10.937636    37A2    11.188216
      84A1    11.188216    85A1    11.358289    38A2    11.358339
      58B1    11.364826    58B2    11.365596    59B1    11.372794
      59B2    11.389736    60B1    11.583252    60B2    11.599376
      86A1    11.728593    39A2    11.831998    87A1    11.832693
      88A1    11.918508    61B1    11.945630    61B2    11.945633
      62B1    12.501948    62B2    12.517573    63B1    12.783974
      63B2    12.783976    40A2    12.829578    89A1    12.829649
      90A1    13.025074    41A2    13.138484    91A1    13.138485
      92A1    13.409447    64B1    13.444307    64B2    13.464567
      42A2    13.892873    93A1    13.892983    65B1    14.018409
      65B2    14.018414    66B1    14.423056    66B2    14.442646
      94A1    14.584105    43A2    14.794670    95A1    14.794752
      96A1    15.835038    44A2    16.146595    97A1    16.146713
      67B1    16.273341    67B2    16.291131    68B1    16.331605
      68B2    16.348052    98A1    16.701919    45A2    17.359941
      99A1    17.359941    69B1    17.428912    69B2    17.428912
      46A2    17.661778   100A1    17.661778    70B1    18.056942
      70B2    18.056943   101A1    18.484558    47A2    18.485188
     102A1    18.747349    71B1    18.999074    71B2    19.022351
     103A1    19.235705    72B1    19.372207    72B2    19.384127
      73B1    20.263605    73B2    20.263605   104A1    20.373379
      48A2    20.373379   105A1    20.551707    74B1    20.576806
      74B2    20.600420    75B1    20.664214    75B2    20.664635
      49A2    20.665691   106A1    20.666551   107A1    20.933191
      76B1    21.033896    76B2    21.033897   108A1    21.955998
      50A2    21.960285   109A1    21.984509   110A1    22.822125
      51A2    22.822125    77B1    22.918388    77B2    22.918388
      78B1    23.046032    78B2    23.065682   111A1    23.286484
      52A2    23.286484   112A1    23.483109    79B1    23.583561
      79B2    23.601021    80B1    23.734274    80B2    23.734294
      53A2    23.919444   113A1    23.919703    54A2    23.962590
     114A1    23.962590    81B1    24.225208    81B2    24.225209
     115A1    24.723716    82B1    24.877936    82B2    24.902730
      55A2    25.130378   116A1    25.130716    83B1    25.766938
     117A1    25.786041    83B2    25.789809   118A1    26.792631
      84B1    26.893903    84B2    26.893903   119A1    27.019461
      56A2    27.019461    85B1    27.374501    85B2    27.374510
     120A1    27.579766    57A2    27.580420   121A1    27.846935
      86B1    27.871943    86B2    27.896241    58A2    28.474970
     122A1    28.475051    87B1    28.673623    87B2    28.673623
      88B1    29.778861    88B2    29.796970   123A1    30.369573
      59A2    30.369718   124A1    30.824522   125A1    31.568890
      60A2    31.568890    89B1    31.630309    89B2    31.653383
      90B1    31.909524    90B2    31.909532   126A1    32.168823
     127A1    32.301756    61A2    32.301885    91B1    33.470052
      91B2    33.494986   128A1    33.884656    62A2    35.088309
     129A1    35.088319    92B1    36.397122    92B2    36.415987
     130A1    38.146759   131A1    81.325591   132A1   104.255624

    Beta Occupied:

       1A1   -20.555199     2A1   -15.603609     3A1    -1.346124
       4A1    -0.763782     5A1    -0.510109     1B1    -0.452027
       1B2    -0.428374

    Beta Virtual:

       6A1     0.156820     2B1     0.161879     2B2     0.166714
       7A1     0.188589     3B1     0.199964     3B2     0.232724
       4B1     0.241266     8A1     0.244956     4B2     0.253792
       9A1     0.322756    10A1     0.371541     1A2     0.371750
       5B1     0.385787    11A1     0.388439     5B2     0.390034
      12A1     0.420703     6B1     0.427011     6B2     0.443260
      13A1     0.524920     2A2     0.547190    14A1     0.547311
       7B1     0.561506     7B2     0.566844    15A1     0.591947
       8B1     0.688754     8B2     0.694734    16A1     0.695962
       9B1     0.729993     9B2     0.729997    17A1     0.766811
      10B1     0.805481    18A1     0.806259     3A2     0.806899
      10B2     0.810581    19A1     0.816872     4A2     0.917931
      20A1     0.918266    11B1     1.024964    11B2     1.026074
      21A1     1.026172    12B1     1.026455    12B2     1.045884
      22A1     1.102831     5A2     1.140119    23A1     1.140216
      13B1     1.154452    24A1     1.162868    13B2     1.166366
      14B1     1.262866    14B2     1.279803    15B1     1.343508
      15B2     1.351702    25A1     1.352754    26A1     1.386728
       6A2     1.387094    27A1     1.443696    16B1     1.714085
      16B2     1.725659     7A2     1.734262    28A1     1.734262
      29A1     1.833829     8A2     1.892737    30A1     1.893350
      17B1     1.895117    17B2     1.895129    18B1     1.908499
      18B2     1.908506    31A1     1.949611    19B1     1.983088
      19B2     1.994870    32A1     2.065386     9A2     2.069156
      33A1     2.071579    20B1     2.177816    20B2     2.199312
      34A1     2.251267    10A2     2.251294    35A1     2.290784
      11A2     2.290784    36A1     2.349253    21B1     2.442206
      21B2     2.442218    37A1     2.481435    22B1     2.491386
      22B2     2.510928    23B1     2.570465    38A1     2.577787
      12A2     2.579522    39A1     2.587936    23B2     2.598157
      24B1     2.731094    24B2     2.731117    13A2     2.811167
      40A1     2.811169    25B1     2.857835    25B2     2.877389
      41A1     2.986977    26B1     3.097436    26B2     3.116241
      42A1     3.163109    27B1     3.346414    27B2     3.362520
      43A1     3.425598    14A2     3.450799    44A1     3.452736
      28B1     3.541249    28B2     3.541249    15A2     3.739341
      45A1     3.739341    46A1     4.020082    29B1     4.024508
      29B2     4.046778    47A1     4.144698    16A2     4.152756
      48A1     4.161660    30B1     4.167205    30B2     4.167246
      31B1     4.297208    31B2     4.297316    32B1     4.307073
      32B2     4.328113    49A1     4.330530    50A1     4.413719
      17A2     4.413720    51A1     4.482447    18A2     4.482963
      33B1     4.588418    33B2     4.588481    34B1     4.626504
      34B2     4.626504    35B1     4.668140    52A1     4.690394
      35B2     4.690519    19A2     4.690587    53A1     4.711627
      54A1     5.053823    20A2     5.142722    55A1     5.142722
      36B1     5.179917    36B2     5.209052    56A1     5.334490
      21A2     5.334593    37B1     5.466961    37B2     5.466982
      57A1     5.560004    38B1     5.590422    22A2     5.595401
      58A1     5.595401    38B2     5.606147    39B1     5.612663
      39B2     5.612742    40B1     5.678037    23A2     5.697305
      59A1     5.697590    40B2     5.701000    60A1     5.843702
      41B1     6.047153    41B2     6.086869    24A2     6.135758
      61A1     6.136083    62A1     6.223852    25A2     6.224185
      63A1     6.388445    42B1     6.466381    42B2     6.466393
      43B1     6.621871    43B2     6.652857    64A1     6.671479
      65A1     6.790006    66A1     7.293205    26A2     7.293205
      67A1     7.294065    44B1     7.370210    44B2     7.370210
      45B1     7.613452    45B2     7.646196    27A2     7.967283
      68A1     7.967556    28A2     7.974037    69A1     7.974071
      46B1     8.134897    46B2     8.162062    70A1     8.192257
      47B1     8.452188    47B2     8.452189    48B1     8.463957
      48B2     8.489863    71A1     8.515869    29A2     8.515869
      72A1     8.635527    30A2     8.637191    49B1     8.639149
      49B2     8.639221    73A1     8.710730    50B1     8.884347
      50B2     8.884377    51B1     8.985498    51B2     9.012481
      74A1     9.083913    31A2     9.084284    75A1     9.448536
      32A2     9.504054    76A1     9.504054    52B1     9.511563
      52B2     9.539286    53B1     9.553304    53B2     9.554034
      77A1     9.775181    54B1     9.813659    54B2     9.813659
      78A1    10.100710    33A2    10.101416    79A1    10.234994
      80A1    10.286948    34A2    10.286949    81A1    10.461869
      55B1    10.656407    55B2    10.664662    56B1    10.677108
      56B2    10.699887    35A2    10.833408    82A1    10.833412
      36A2    10.852494    83A1    10.852852    57B1    10.944052
      57B2    10.944052    37A2    11.193131    84A1    11.193131
      58B1    11.368007    58B2    11.369240    59B1    11.376452
      85A1    11.383005    38A2    11.383021    59B2    11.405592
      60B1    11.584533    60B2    11.606391    86A1    11.733040
      39A2    11.845339    87A1    11.846168    88A1    11.926474
      61B1    11.955971    61B2    11.955977    62B1    12.506870
      62B2    12.545214    63B1    12.799912    63B2    12.799917
      40A2    12.844035    89A1    12.844234    90A1    13.036685
      41A2    13.152505    91A1    13.152505    92A1    13.417990
      64B1    13.449207    64B2    13.479624    42A2    13.905745
      93A1    13.906002    65B1    14.027605    65B2    14.027617
      66B1    14.427113    66B2    14.457209    94A1    14.593464
      43A2    14.812793    95A1    14.812941    96A1    15.845071
      44A2    16.159228    97A1    16.159500    67B1    16.278859
      67B2    16.313541    68B1    16.336458    68B2    16.365068
      98A1    16.710395    45A2    17.372555    99A1    17.372555
      69B1    17.438958    69B2    17.438958   100A1    17.669873
      46A2    17.669873    70B1    18.063420    70B2    18.063424
     101A1    18.489683    47A2    18.490729   102A1    18.754057
      71B1    19.001688    71B2    19.032865   103A1    19.246721
      72B1    19.377417    72B2    19.417666    73B1    20.282208
      73B2    20.282208   104A1    20.388059    48A2    20.388060
     105A1    20.560966    74B1    20.578274    74B2    20.612473
      49A2    20.676820    75B1    20.678106   106A1    20.678946
      75B2    20.679212   107A1    20.940527    76B1    21.059395
      76B2    21.059399   108A1    21.964226    50A2    21.976514
     109A1    22.005818   110A1    22.830060    51A2    22.830060
      77B1    22.924678    77B2    22.924678    78B1    23.051678
      78B2    23.085482   111A1    23.291635    52A2    23.291636
     112A1    23.489904    79B1    23.590156    79B2    23.619747
      80B1    23.739512    80B2    23.739562    53A2    23.924334
     113A1    23.924657    54A2    23.985265   114A1    23.985265
      81B1    24.241466    81B2    24.241474   115A1    24.730860
      82B1    24.881971    82B2    24.919266    55A2    25.142967
     116A1    25.143641    83B1    25.770131   117A1    25.793970
      83B2    25.804533   118A1    26.801729    84B1    26.906537
      84B2    26.906537   119A1    27.029456    56A2    27.029456
      85B1    27.382503    85B2    27.382517   120A1    27.587087
      57A2    27.587967   121A1    27.852170    86B1    27.875302
      86B2    27.904468    58A2    28.495918   122A1    28.496089
      87B1    28.692640    87B2    28.692641    88B1    29.782751
      88B2    29.815465   123A1    30.381729    59A2    30.382031
     124A1    30.833859   125A1    31.585009    60A2    31.585009
      89B1    31.635261    89B2    31.666735    90B1    31.921795
      90B2    31.921812   126A1    32.175710   127A1    32.311609
      61A2    32.311798    91B1    33.474723    91B2    33.507191
     128A1    33.892607    62A2    35.104607   129A1    35.104643
      92B1    36.402125    92B2    36.428921   130A1    38.152254
     131A1    81.332639   132A1   104.261347

    Final Occupation by Irrep:
             A1    A2    B1    B2
    DOCC [     5,    0,    1,    1 ]
    SOCC [     1,    0,    0,    1 ]

  Energy converged.

  @UHF Final Energy:  -129.22272526843034

   => Energetics <=

    Nuclear Repulsion Energy =             23.6071636436278673
    One-Electron Energy =                -225.6013059037445032
    Two-Electron Energy =                  72.7714169916863085
    Total Energy =                       -129.2227252684303380

  UHF NO Occupations:
  HONO-2 :    1 B2 1.9947646
  HONO-1 :    6 A1 1.0000000
  HONO-0 :    2 B2 1.0000000
  LUNO+0 :    3 B2 0.0052354
  LUNO+1 :    2 B1 0.0028094
  LUNO+2 :    7 A1 0.0022972
  LUNO+3 :    8 A1 0.0003636

Properties will be evaluated at   0.000000,   0.000000,   0.000000 Bohr

Properties computed using the SCF density matrix

  Nuclear Dipole Moment: (a.u.)
     X:     0.0000      Y:     0.0000      Z:    -0.0048

  Electronic Dipole Moment: (a.u.)
     X:     0.0000      Y:     0.0000      Z:     4.2764

  Dipole Moment: (a.u.)
     X:     0.0000      Y:     0.0000      Z:     4.2716     Total:     4.2716

  Dipole Moment: (Debye)
     X:     0.0000      Y:     0.0000      Z:    10.8573     Total:    10.8573

*** tstop() called on n412-050.vsc4.prov at Sat Oct 31 00:48:47 2020
Module time:
	user time   =    1780.79 seconds =      29.68 minutes
	system time =     134.22 seconds =       2.24 minutes
	total time  =       1847 seconds =      30.78 minutes
Total time:
	user time   =    1780.79 seconds =      29.68 minutes
	system time =     134.22 seconds =       2.24 minutes
	total time  =       1847 seconds =      30.78 minutes

*** tstart() called on n412-050.vsc4.prov
*** at Sat Oct 31 00:48:47 2020

	Wfn Parameters:
	--------------------
	Wavefunction         = CCSD
	Number of irreps     = 4
	Number of MOs        = 378
	Number of active MOs = 376
	AO-Basis             = NONE
	Semicanonical        = false
	Reference            = UHF
	Print Level          = 1

	IRREP	# MOs	# FZDC	# DOCC	# SOCC	# VIRT	# FZVR
	-----	-----	------	------	------	------	------
	 A1	   132	    2	    3	    1	    126	    0
	 A2	   62	    0	    0	    0	    62	    0
	 B1	   92	    0	    1	    0	    91	    0
	 B2	   92	    0	    1	    1	    90	    0
	Transforming integrals...
	IWL integrals will be deleted.
	(OO|OO)...
	Presorting SO-basis two-electron integrals.
	Sorting File: SO Ints (nn|nn) nbuckets = 1
	Transforming the one-electron integrals and constructing Fock matrices
	Starting AA/AB first half-transformation.
	Sorting AA/AB half-transformed integrals.
	Starting BB first half-transformation.
	Sorting BB half-transformed integrals.
	First half integral transformation complete.
	Starting AA second half-transformation.
	Starting AB second half-transformation.
	Starting BB second half-transformation.
	Two-electron integral transformation complete.
	(OO|OV)...
	Starting AA second half-transformation.
	Starting AB second half-transformation.
	Starting BB second half-transformation.
	Two-electron integral transformation complete.
	(OO|VV)...
	Starting AA second half-transformation.
	Starting AB second half-transformation.
	Starting BB second half-transformation.
	Two-electron integral transformation complete.
	(OV|OO)...
	Starting AA/AB first half-transformation.
	Sorting AA/AB half-transformed integrals.
	Starting BB first half-transformation.
	Sorting BB half-transformed integrals.
	First half integral transformation complete.
	Starting AA second half-transformation.
	Starting AB second half-transformation.
	Starting BB second half-transformation.
	Two-electron integral transformation complete.
	(OV|OV)...
	Starting AA second half-transformation.
	Starting AB second half-transformation.
	Starting BB second half-transformation.
	Two-electron integral transformation complete.
	(OV|VV)...
	Starting AA second half-transformation.
	Starting AB second half-transformation.
	Starting BB second half-transformation.
	Two-electron integral transformation complete.
	(VV|OO)...
	Starting AA/AB first half-transformation.
	Sorting AA/AB half-transformed integrals.
	Starting BB first half-transformation.
	Sorting BB half-transformed integrals.
	First half integral transformation complete.
	Starting AA second half-transformation.
	Starting AB second half-transformation.
	Starting BB second half-transformation.
	Two-electron integral transformation complete.
	(VV|OV)...

      * MP2 total energy                      = -129.697417700817169
      * CCSD total energy                     = -129.684304019052888
*** Psi4 exiting successfully. Buy a developer a beer!
