                               Psi4 1.2a1.dev938

  ==> Input File <==

--------------------------------------------------------------------------
# Any line starting with the # character is a comment line
memory 250000 mb
molecule molecule{
-1 3
N          0.0000000000        0.0000000000        0.6693287680
O          0.0000000000        0.0000000000       -0.5859649271
}

set {
  reference uhf
  basis aug-cc-pv(d+d)z
  scf_type OUT_OF_CORE
  freeze_core true
}

energy('ccsd')
--------------------------------------------------------------------------

    Molecular point group: c2v

    Geometry (in Angstrom), charge = -1, multiplicity = 3:

       Center              X                  Y                   Z               Mass
    ------------   -----------------  -----------------  -----------------  -----------------
           N          0.000000000000     0.000000000000     0.669322057790    14.003074004780
           O          0.000000000000     0.000000000000    -0.585971637310    15.994914619560

  Charge       = -1
  Multiplicity = 3
  Basis Set: AUG-CC-PV(D+D)Z
    Blend: AUG-CC-PV(D+D)Z

    Orbital Energies (a.u.)
    -----------------------

    Alpha Occupied:

       1A1   -20.308210     2A1   -15.343355     3A1    -1.176803
       4A1    -0.672096     1B2    -0.373717     1B1    -0.373717
       5A1    -0.313711     2B2    -0.089202     2B1    -0.089202

    Alpha Virtual:

       6A1     0.283274     7A1     0.333934     3B2     0.349838
       3B1     0.349838     8A1     0.429057     4B2     0.440230
       4B1     0.440230     9A1     0.628108    10A1     0.838550
       1A2     0.918726    11A1     0.918726     5B2     1.079487
       5B1     1.079487    12A1     1.137132    13A1     1.234021
       6B1     1.349528     6B2     1.349528    14A1     1.368146
       2A2     1.368146     7B1     1.495029     7B2     1.495029
      15A1     1.562529    16A1     1.873068     8B1     1.948548
       8B2     1.948548    17A1     2.346588    18A1     2.705668
       3A2     2.705668     9B1     2.787998     9B2     2.787998
      19A1     3.068288    20A1     3.591571     4A2     3.870622
      21A1     3.870622    10B2     4.111089    10B1     4.111089
      22A1     4.276516

    Beta Occupied:

       1A1   -20.277204     2A1   -15.290453     3A1    -1.080412
       4A1    -0.489216     5A1    -0.242913     1B2    -0.187631
       1B1    -0.187631

    Beta Virtual:

       6A1     0.283240     2B2     0.330375     2B1     0.330375
       7A1     0.344171     3B2     0.432261     3B1     0.432261
       8A1     0.432541     4B1     0.550001     4B2     0.550001
       9A1     0.631363    10A1     0.895845    11A1     0.949632
       1A2     0.949632     5B2     1.113490     5B1     1.113490
      12A1     1.167379    13A1     1.254834    14A1     1.387850
       2A2     1.387850     6B1     1.449827     6B2     1.449827
       7B2     1.562796     7B1     1.562796    15A1     1.582205
      16A1     1.906782     8B1     2.001154     8B2     2.001154
      17A1     2.373985    18A1     2.836698     3A2     2.836698
       9B2     2.852202     9B1     2.852202    19A1     3.127520
      20A1     3.613053     4A2     3.937957    21A1     3.937957
      10B2     4.153801    10B1     4.153801    22A1     4.308346

    Final Occupation by Irrep:
             A1    A2    B1    B2
    DOCC [     5,    0,    1,    1 ]
    SOCC [     0,    0,    1,    1 ]

  Energy converged.

  @UHF Final Energy:  -129.25987974211591

   => Energetics <=

    Nuclear Repulsion Energy =             23.6071636436278638
    One-Electron Energy =                -229.2386131631723174
    Two-Electron Energy =                  76.3715697774285331
    Total Energy =                       -129.2598797421159134

  UHF NO Occupations:
  HONO-2 :    1 B2 1.9910076
  HONO-1 :    2 B1 1.0000000
  HONO-0 :    2 B2 1.0000000
  LUNO+0 :    3 B2 0.0089924
  LUNO+1 :    3 B1 0.0089924
  LUNO+2 :    6 A1 0.0056589
  LUNO+3 :    7 A1 0.0011965

Properties will be evaluated at   0.000000,   0.000000,   0.000000 Bohr

Properties computed using the SCF density matrix

  Nuclear Dipole Moment: (a.u.)
     X:     0.0000      Y:     0.0000      Z:    -0.0048

  Electronic Dipole Moment: (a.u.)
     X:     0.0000      Y:     0.0000      Z:    -0.0961

  Dipole Moment: (a.u.)
     X:     0.0000      Y:     0.0000      Z:    -0.1009     Total:     0.1009

  Dipole Moment: (Debye)
     X:     0.0000      Y:     0.0000      Z:    -0.2564     Total:     0.2564

*** tstop() called on cqc05 at Thu Aug 20 19:54:38 2020
Module time:
	user time   =       0.66 seconds =       0.01 minutes
	system time =       0.01 seconds =       0.00 minutes
	total time  =          1 seconds =       0.02 minutes
Total time:
	user time   =       0.66 seconds =       0.01 minutes
	system time =       0.01 seconds =       0.00 minutes
	total time  =          1 seconds =       0.02 minutes

*** tstart() called on cqc05
*** at Thu Aug 20 19:54:38 2020

	Wfn Parameters:
	--------------------
	Wavefunction         = CCSD
	Number of irreps     = 4
	Number of MOs        = 46
	Number of active MOs = 44
	AO-Basis             = NONE
	Semicanonical        = false
	Reference            = UHF
	Print Level          = 1

	IRREP	# MOs	# FZDC	# DOCC	# SOCC	# VIRT	# FZVR
	-----	-----	------	------	------	------	------
	 A1	   22	    2	    3	    0	    17	    0
	 A2	   4	    0	    0	    0	    4	    0
	 B1	   10	    0	    1	    1	    8	    0
	 B2	   10	    0	    1	    1	    8	    0
	Transforming integrals...
	IWL integrals will be deleted.
	(OO|OO)...
	Presorting SO-basis two-electron integrals.
	Sorting File: SO Ints (nn|nn) nbuckets = 1
	Transforming the one-electron integrals and constructing Fock matrices
	Starting AA/AB first half-transformation.
	Sorting AA/AB half-transformed integrals.
	Starting BB first half-transformation.
	Sorting BB half-transformed integrals.
	First half integral transformation complete.
	Starting AA second half-transformation.
	Starting AB second half-transformation.
	Starting BB second half-transformation.
	Two-electron integral transformation complete.
	(OO|OV)...
	Starting AA second half-transformation.
	Starting AB second half-transformation.
	Starting BB second half-transformation.
	Two-electron integral transformation complete.
	(OO|VV)...
	Starting AA second half-transformation.
	Starting AB second half-transformation.
	Starting BB second half-transformation.
	Two-electron integral transformation complete.
	(OV|OO)...
	Starting AA/AB first half-transformation.
	Sorting AA/AB half-transformed integrals.
	Starting BB first half-transformation.
	Sorting BB half-transformed integrals.
	First half integral transformation complete.
	Starting AA second half-transformation.
	Starting AB second half-transformation.
	Starting BB second half-transformation.
	Two-electron integral transformation complete.
	(OV|OV)...
	Starting AA second half-transformation.
	Starting AB second half-transformation.
	Starting BB second half-transformation.
	Two-electron integral transformation complete.
	(OV|VV)...
	Starting AA second half-transformation.
	Starting AB second half-transformation.
	Starting BB second half-transformation.
	Two-electron integral transformation complete.
	(VV|OO)...
	Starting AA/AB first half-transformation.
	Sorting AA/AB half-transformed integrals.
	Starting BB first half-transformation.
	Sorting BB half-transformed integrals.
	First half integral transformation complete.
	Starting AA second half-transformation.
	Starting AB second half-transformation.
	Starting BB second half-transformation.
	Two-electron integral transformation complete.
	(VV|OV)...
	Starting AA second half-transformation.
	Starting AB second half-transformation.
	Starting BB second half-transformation.
	Two-electron integral transformation complete.
	(VV|VV)...
	Starting AA second half-transformation.
	Starting AB second half-transformation.
	Starting BB second half-transformation.
	Two-electron integral transformation complete.
	Frozen core energy     =   -114.79860041456304

	Size of irrep 0 of <AB|CD> integrals:      0.039 (MW) /      0.314 (MB)
	Size of irrep 1 of <AB|CD> integrals:      0.017 (MW) /      0.139 (MB)
	Size of irrep 2 of <AB|CD> integrals:      0.028 (MW) /      0.226 (MB)
	Size of irrep 3 of <AB|CD> integrals:      0.028 (MW) /      0.226 (MB)
	Total:                                     0.113 (MW) /      0.905 (MB)

	Size of irrep 0 of <ab|cd> integrals:      0.046 (MW) /      0.366 (MB)
	Size of irrep 1 of <ab|cd> integrals:      0.022 (MW) /      0.178 (MB)
	Size of irrep 2 of <ab|cd> integrals:      0.036 (MW) /      0.286 (MB)
	Size of irrep 3 of <ab|cd> integrals:      0.036 (MW) /      0.286 (MB)
	Total:                                     0.139 (MW) /      1.116 (MB)

	Size of irrep 0 of <Ab|Cd> integrals:      0.202 (MW) /      1.613 (MB)
	Size of irrep 1 of <Ab|Cd> integrals:      0.078 (MW) /      0.627 (MB)
	Size of irrep 2 of <Ab|Cd> integrals:      0.127 (MW) /      1.020 (MB)
	Size of irrep 3 of <Ab|Cd> integrals:      0.127 (MW) /      1.020 (MB)
	Total:                                     0.535 (MW) /      4.279 (MB)

	Size of irrep 0 of <IA|BC> integrals:      0.036 (MW) /      0.288 (MB)
	Size of irrep 1 of <IA|BC> integrals:      0.012 (MW) /      0.093 (MB)
	Size of irrep 2 of <IA|BC> integrals:      0.022 (MW) /      0.177 (MB)
	Size of irrep 3 of <IA|BC> integrals:      0.022 (MW) /      0.177 (MB)
	Total:                                     0.092 (MW) /      0.735 (MB)

	Size of irrep 0 of <ia|bc> integrals:      0.032 (MW) /      0.258 (MB)
	Size of irrep 1 of <ia|bc> integrals:      0.009 (MW) /      0.072 (MB)
	Size of irrep 2 of <ia|bc> integrals:      0.018 (MW) /      0.145 (MB)
	Size of irrep 3 of <ia|bc> integrals:      0.018 (MW) /      0.145 (MB)
	Total:                                     0.077 (MW) /      0.620 (MB)

	Size of irrep 0 of <Ia|Bc> integrals:      0.039 (MW) /      0.313 (MB)
	Size of irrep 1 of <Ia|Bc> integrals:      0.013 (MW) /      0.108 (MB)
	Size of irrep 2 of <Ia|Bc> integrals:      0.025 (MW) /      0.197 (MB)
	Size of irrep 3 of <Ia|Bc> integrals:      0.025 (MW) /      0.197 (MB)
	Total:                                     0.102 (MW) /      0.814 (MB)

	Size of irrep 0 of <iA|bC> integrals:      0.030 (MW) /      0.241 (MB)
	Size of irrep 1 of <iA|bC> integrals:      0.008 (MW) /      0.063 (MB)
	Size of irrep 2 of <iA|bC> integrals:      0.016 (MW) /      0.129 (MB)
	Size of irrep 3 of <iA|bC> integrals:      0.016 (MW) /      0.129 (MB)
	Total:                                     0.070 (MW) /      0.560 (MB)

	Size of irrep 0 of tIjAb amplitudes:       0.006 (MW) /      0.047 (MB)
	Size of irrep 1 of tIjAb amplitudes:       0.001 (MW) /      0.009 (MB)
	Size of irrep 2 of tIjAb amplitudes:       0.003 (MW) /      0.026 (MB)
	Size of irrep 3 of tIjAb amplitudes:       0.003 (MW) /      0.026 (MB)
	Total:                                     0.013 (MW) /      0.107 (MB)

	Nuclear Rep. energy          =     23.60716364362786
	SCF energy                   =   -129.25987974211591
	One-electron energy          =    -70.86063419282351
	Two-electron (AA) energy     =      9.64867593199396
	Two-electron (BB) energy     =      4.54151340359257
	Two-electron (AB) energy     =     18.60200188605631
	Two-electron energy          =     32.79219122164284
	Reference energy             =   -129.25987974211586

*** tstop() called on cqc05 at Thu Aug 20 19:54:38 2020
Module time:
	user time   =       0.15 seconds =       0.00 minutes
	system time =       0.07 seconds =       0.00 minutes
	total time  =          0 seconds =       0.00 minutes
Total time:
	user time   =       0.82 seconds =       0.01 minutes
	system time =       0.08 seconds =       0.00 minutes
	total time  =          1 seconds =       0.02 minutes

*** tstart() called on cqc05
*** at Thu Aug 20 19:54:38 2020

            **************************
            *                        *
            *        CCENERGY        *
            *                        *
            **************************

    Nuclear Rep. energy (wfn)     =   23.607163643627864
    SCF energy          (wfn)     = -129.259879742115913
    Reference energy    (file100) = -129.259879742115857

    Input parameters:
    -----------------
    Wave function   =     CCSD
    Reference wfn   =     UHF
    Brueckner       =     No
    Memory (Mbytes) =     250000.0
    Maxiter         =     50
    R_Convergence   =     1.0e-07
    E_Convergence   =     1.0e-06
    Restart         =     Yes
    DIIS            =     Yes
    AO Basis        =     NONE
    ABCD            =     NEW
    Cache Level     =     2
    Cache Type      =     LRU
    Print Level     =     1
    Num. of threads =     4
    # Amps to Print =     10
    Print MP2 Amps? =     No
    Analyze T2 Amps =     No
    Print Pair Ener =     No
    Local CC        =     No
    SCS-MP2         =     False
    SCSN-MP2        =     False
    SCS-CCSD        =     False

MP2 correlation energy -0.3374146215556334
                Solving CC Amplitude Equations
                ------------------------------
  Iter             Energy              RMS        T1Diag      D1Diag    New D1Diag    D2Diag
  ----     ---------------------    ---------   ----------  ----------  ----------   --------
     0        -0.337414621555633    0.000e+00    0.000000    0.000000    0.000000    0.000000
     1        -0.333273808572777    1.040e-01    0.026174    0.000000    0.000000    0.000000
     2        -0.345502946229255    3.507e-02    0.029333    0.000000    0.000000    0.000000
     3        -0.350021084443175    2.648e-02    0.040005    0.000000    0.000000    0.000000
     4        -0.349901574381747    9.463e-03    0.044248    0.000000    0.000000    0.000000
     5        -0.349817598013931    4.773e-03    0.046026    0.000000    0.000000    0.000000
     6        -0.349885341426671    1.962e-03    0.046528    0.000000    0.000000    0.000000
     7        -0.349905150747318    1.263e-03    0.046762    0.000000    0.000000    0.000000
     8        -0.349906271032567    4.422e-04    0.046788    0.000000    0.000000    0.000000
     9        -0.349910110659443    1.725e-04    0.046825    0.000000    0.000000    0.000000
    10        -0.349905997411518    5.648e-05    0.046818    0.000000    0.000000    0.000000
    11        -0.349906954576976    2.257e-05    0.046815    0.000000    0.000000    0.000000
    12        -0.349906807537786    7.287e-06    0.046817    0.000000    0.000000    0.000000
    13        -0.349907079568907    2.953e-06    0.046817    0.000000    0.000000    0.000000
    14        -0.349907202539766    1.119e-06    0.046817    0.000000    0.000000    0.000000
    15        -0.349907209747072    4.488e-07    0.046817    0.000000    0.000000    0.000000
    16        -0.349907209683726    1.975e-07    0.046817    0.000000    0.000000    0.000000
    17        -0.349907207752014    9.921e-08    0.046817    0.000000    0.000000    0.000000
    17        -0.349907207752014    9.921e-08    0.046817    0.000000    0.000000    0.000000

    Iterations converged.

    CCSD corr. energy   =   -0.349907207752014
    PPL corr. energy    =    0.071187383222959
    OS PPL corr. energy =    0.054867791638809
    SS PPL corr. energy =    0.016319591584151
    Largest TIA Amplitudes:
              4  21        -0.0594154449
              6  29        -0.0594154449
              4  22        -0.0385873958
              6  30        -0.0385873958
              3  21        -0.0271077541
              5  29        -0.0271077541
              3  22         0.0212306839
              5  30         0.0212306839
              2   1         0.0176845805
              1   1         0.0123383385

    Largest Tia Amplitudes:
              3  23         0.0543900523
              4  32         0.0543900523
              3  22         0.0343778400
              4  31         0.0343778400
              3  21         0.0240040278
              4  30         0.0240040278
              3  25         0.0213915870
              4  34         0.0213915870
              1   4         0.0199463328
              3  27         0.0148464405

    Largest TIJAB Amplitudes:
      6   4  29  21        -0.0181762833
      4   2  23   4         0.0164004217
      6   2  31   4         0.0164004217
      6   4  32  24        -0.0157234409
      5   3  17   5        -0.0121449377
      4   2  26   4        -0.0121268500
      6   2  34   4        -0.0121268500
      6   4  29  24        -0.0111865228
      6   4  32  21        -0.0111865228
      6   4  31  23        -0.0110399466

    Largest Tijab Amplitudes:
      4   3  32  23        -0.0652284302
      3   2  23   4         0.0380805508
      4   2  32   4         0.0380805508
      4   3  30  23        -0.0338827776
      4   3  32  21        -0.0338827776
      4   3  30  21        -0.0205847709
      3   2  21   4         0.0198298485
      4   2  30   4         0.0198298485
      3   2  23   9         0.0194220545
      4   2  32   9         0.0194220545

    Largest TIjAb Amplitudes:
      2   2   4   4         0.0509054052
      2   3   4  23        -0.0485673393
      2   4   4  32        -0.0485673393
      4   3  21  23        -0.0315166195
      6   4  29  32        -0.0315166195
      4   3  24  23        -0.0281446475
      6   4  32  32        -0.0281446475
      3   3  22  23        -0.0272608565
      5   4  30  32        -0.0272608565
      2   2   9   9         0.0269553814

    SCF energy       (wfn)                    = -129.259879742115913
    Reference energy (file100)                = -129.259879742115857

    Opposite-spin MP2 correlation energy      =   -0.239458373481222
    Same-spin MP2 correlation energy          =   -0.097956248074410
    MP2 correlation energy                    =   -0.337414621555633
      * MP2 total energy                      = -129.597294363671494

    Opposite-spin CCSD correlation energy     =   -0.262094341776440
    Same-spin CCSD correlation energy         =   -0.087812866682195
    CCSD correlation energy                   =   -0.349907207752014
      * CCSD total energy                     = -129.609786949867868
*** Psi4 exiting successfully. Buy a developer a beer!
