                               Psi4 1.4a3.dev88

  ==> Input File <==

--------------------------------------------------------------------------
# Any line starting with the # character is a comment line
memory 250000 mb
molecule molecule{
0 1
Si         0.0000000000        0.0000000000        0.0702843423
H          0.0000000000       -1.0886337295       -0.9792105160
H          0.0000000000        1.0886337295       -0.9792105160
}

set {
  reference rhf
  basis aug-cc-pV(Q+d)Z
  scf_type OUT_OF_CORE
  freeze_core true
}

energy('ccsd(t)')
--------------------------------------------------------------------------

    Molecular point group: c2v

    Geometry (in Angstrom), charge = 0, multiplicity = 1:

       Center              X                  Y                   Z               Mass
    ------------   -----------------  -----------------  -----------------  -----------------
         SI          -0.000000000000     0.000000000000     0.070531265355    27.976926534650
         H            0.000000000000    -1.088633729500    -0.978963592945     1.007825032230
         H           -0.000000000000     1.088633729500    -0.978963592945     1.007825032230

  Charge       = 0
  Multiplicity = 1
  Basis Set: AUG-CC-PV(Q+D)Z
    Blend: AUG-CC-PV(Q+D)Z

    Orbital Energies [Eh]
    ---------------------

    Doubly Occupied:

       1A1   -68.798047     2A1    -6.143976     1B1    -4.247423
       1B2    -4.245448     3A1    -4.244649     4A1    -0.675602
       2B2    -0.460351     5A1    -0.338402

  @RHF Final Energy:  -290.03479532579479

   => Energetics <=

    Nuclear Repulsion Energy =             10.0417268751967264
    One-Electron Energy =                -421.8452472471346368
    Two-Electron Energy =                 121.7687250461431461
    Total Energy =                       -290.0347953257947893

  Dipole Moment: [D]
     X:     0.0000      Y:     0.0000      Z:    -0.3025     Total:     0.3025

      * MP2 total energy                      = -290.152602535183519
      * CCSD total energy                     = -290.177387818259660
      * CCSD(T) total energy                  = -290.181610468791973
*** Psi4 exiting successfully. Buy a developer a beer!
