                               Psi4 1.2a1.dev939

  ==> Input File <==

--------------------------------------------------------------------------
# Any line starting with the # character is a comment line

memory 32000 mb

molecule molecule {
-1 1
N          0.0000000000        0.0000000000        0.0812547326
H          0.0000000000        0.8002632301       -0.5645726249
H          0.0000000000       -0.8002632301       -0.5645726249
}

set {
  reference rhf
  basis aug-cc-pv(D+d)z
  scf_type OUT_OF_CORE
  freeze_core true
}

energy('ccsd')
--------------------------------------------------------------------------

    Molecular point group: c2v

    Geometry (in Angstrom), charge = -1, multiplicity = 1:

       Center              X                  Y                   Z               Mass
    ------------   -----------------  -----------------  -----------------  -----------------
           N          0.000000000000     0.000000000000     0.081265021419    14.003074004780
           H         -0.000000000000     0.800263230100    -0.564562336081     1.007825032070
           H          0.000000000000    -0.800263230100    -0.564562336081     1.007825032070

  Charge       = -1
  Multiplicity = 1
  Basis Set: AUG-CC-PV(D+D)Z
    Blend: AUG-CC-PV(D+D)Z

    Orbital Energies (a.u.)
    -----------------------

    Doubly Occupied:

       1A1   -15.234945     2A1    -0.760855     1B2    -0.289587
       3A1    -0.140994     1B1    -0.048026

  @RHF Final Energy:   -55.53593133209195

   => Energetics <=

    Nuclear Repulsion Energy =              7.5348319296922082
    One-Electron Energy =                 -93.1927124494483934
    Two-Electron Energy =                  30.1219491876642458
    Total Energy =                        -55.5359313320919483
      * MP2 total energy                      =  -55.755903101810439
      * CCSD total energy                     =  -55.763045052098413
*** Psi4 exiting successfully. Buy a developer a beer!
