                               Psi4 1.2a1.dev939

  ==> Input File <==

--------------------------------------------------------------------------
# Any line starting with the # character is a comment line

memory 32000 mb

molecule molecule {
-1 1
N          0.0000000000        0.0000000000        0.0812547326
H          0.0000000000        0.8002632301       -0.5645726249
H          0.0000000000       -0.8002632301       -0.5645726249
}

set {
  reference rhf
  basis aug-cc-pv(Q+d)z
  scf_type OUT_OF_CORE
  freeze_core true
}

energy('ccsd')
--------------------------------------------------------------------------

    Molecular point group: c2v

    Geometry (in Angstrom), charge = -1, multiplicity = 1:

       Center              X                  Y                   Z               Mass
    ------------   -----------------  -----------------  -----------------  -----------------
           N          0.000000000000     0.000000000000     0.081265021419    14.003074004780
           H         -0.000000000000     0.800263230100    -0.564562336081     1.007825032070
           H          0.000000000000    -0.800263230100    -0.564562336081     1.007825032070

  Charge       = -1
  Multiplicity = 1
  Basis Set: AUG-CC-PV(Q+D)Z
    Blend: AUG-CC-PV(Q+D)Z

    Orbital Energies (a.u.)
    -----------------------

    Doubly Occupied:

       1A1   -15.225525     2A1    -0.760617     1B2    -0.291326
       3A1    -0.143261     1B1    -0.049518

  @RHF Final Energy:   -55.55178874812387

   => Energetics <=

    Nuclear Repulsion Energy =              7.5348319296922082
    One-Electron Energy =                 -93.2327488540622085
    Two-Electron Energy =                  30.1461281762461368
    PCM Polarization Energy =               0.0000000000000000
    Total Energy =                        -55.5517887481238688
      * MP2 total energy                      =  -55.826655927573299
      * CCSD total energy                     =  -55.826190642613980
*** Psi4 exiting successfully. Buy a developer a beer!
