                               Psi4 1.2a1.dev939

  ==> Input File <==

--------------------------------------------------------------------------
# Any line starting with the # character is a comment line
memory 250000 mb
molecule molecule{
0 3
C          0.0000000000        0.0000000000        0.0617255311
H          0.0000000000        0.9845500245       -0.3677725628
H          0.0000000000       -0.9845500245       -0.3677725628
}

set {
  reference uhf
  basis aug-cc-pv(d+d)z
  scf_type OUT_OF_CORE
  freeze_core true
  DOCC [     2,    0,    0,    1 ]
  SOCC [     1,    0,    1,    0 ]
}

energy('ccsd')
--------------------------------------------------------------------------

    Molecular point group: c2v

    Geometry (in Angstrom), charge = 0, multiplicity = 3:

       Center              X                  Y                   Z               Mass
    ------------   -----------------  -----------------  -----------------  -----------------
           C          0.000000000000     0.000000000000     0.061767942019    12.000000000000
           H         -0.000000000000     0.984550024500    -0.367730151881     1.007825032070
           H          0.000000000000    -0.984550024500    -0.367730151881     1.007825032070

  Charge       = 0
  Multiplicity = 3
  Basis Set: AUG-CC-PV(D+D)Z
    Blend: AUG-CC-PV(D+D)Z

    Orbital Energies (a.u.)
    -----------------------

    Alpha Occupied:

       1A1   -11.271512     2A1    -0.951720     1B2    -0.619386
       3A1    -0.452752     1B1    -0.408750

    Alpha Virtual:

       4A1     0.037929     2B2     0.056351     5A1     0.111246
       2B1     0.115440     3B2     0.159420     6A1     0.173255
       7A1     0.250519     4B2     0.300047     1A2     0.347673
       8A1     0.392705     3B1     0.407638     5B2     0.461301
       9A1     0.490457     4B1     0.516207     6B2     0.520277
      10A1     0.541617    11A1     0.610285     7B2     0.636160
       2A2     0.641827     5B1     0.854852    12A1     0.860961
       8B2     0.972906    13A1     1.081443     9B2     1.412407
       3A2     1.513030     6B1     1.583518    14A1     1.610590
      15A1     1.676879    10B2     1.779740    16A1     2.005123
       7B1     2.014062    11B2     2.307782     4A2     2.316045
      17A1     2.383646    12B2     2.839901    18A1     3.025147

    Beta Occupied:

       1A1   -11.223160     2A1    -0.780474     1B2    -0.587111

    Beta Virtual:

       3A1     0.040786     2B2     0.057162     4A1     0.063941
       1B1     0.072787     3B2     0.161890     5A1     0.171910
       6A1     0.203833     2B1     0.213400     7A1     0.268665
       4B2     0.323639     1A2     0.363905     8A1     0.442004
       3B1     0.457679     5B2     0.468972     6B2     0.530591
       9A1     0.531566     4B1     0.557502    10A1     0.568887
      11A1     0.639426     7B2     0.661625     2A2     0.668230
      12A1     0.959746     5B1     0.980339     8B2     1.005914
      13A1     1.126940     9B2     1.447844     3A2     1.564404
      14A1     1.680765     6B1     1.697884    15A1     1.753785
      10B2     1.787970     7B1     2.050918    16A1     2.051061
      11B2     2.348623     4A2     2.360271    17A1     2.414649
      12B2     2.860310    18A1     3.051691

    Final Occupation by Irrep:
             A1    A2    B1    B2
    DOCC [     2,    0,    0,    1 ]
    SOCC [     1,    0,    1,    0 ]

  Energy converged.

  @UHF Final Energy:   -38.92820805624005

   => Energetics <=

    Nuclear Repulsion Energy =              6.1804860662519978
    One-Electron Energy =                 -63.9225236773385461
    Two-Electron Energy =                  18.8138295548464924
    Total Energy =                        -38.9282080562400523

  UHF NO Occupations:
  HONO-2 :    2 A1 1.9940148
  HONO-1 :    1 B1 1.0000000
  HONO-0 :    3 A1 1.0000000
  LUNO+0 :    4 A1 0.0059852
  LUNO+1 :    2 B2 0.0018230
  LUNO+2 :    5 A1 0.0000012
  LUNO+3 :    2 B1 0.0000000

Properties will be evaluated at   0.000000,   0.000000,   0.000000 Bohr

Properties computed using the SCF density matrix

  Nuclear Dipole Moment: (a.u.)
     X:     0.0000      Y:     0.0000      Z:    -0.6895

  Electronic Dipole Moment: (a.u.)
     X:     0.0000      Y:     0.0000      Z:     0.4574

  Dipole Moment: (a.u.)
     X:     0.0000      Y:     0.0000      Z:    -0.2321     Total:     0.2321

  Dipole Moment: (Debye)
     X:     0.0000      Y:     0.0000      Z:    -0.5900     Total:     0.5900

*** tstop() called on l48 at Thu Jan 14 12:09:43 2021
Module time:
	user time   =       0.29 seconds =       0.00 minutes
	system time =       0.04 seconds =       0.00 minutes
	total time  =          1 seconds =       0.02 minutes
Total time:
	user time   =       0.29 seconds =       0.00 minutes
	system time =       0.04 seconds =       0.00 minutes
	total time  =          1 seconds =       0.02 minutes

*** tstart() called on l48
*** at Thu Jan 14 12:09:43 2021

	Wfn Parameters:
	--------------------
	Wavefunction         = CCSD
	Number of irreps     = 4
	Number of MOs        = 41
	Number of active MOs = 40
	AO-Basis             = NONE
	Semicanonical        = false
	Reference            = UHF
	Print Level          = 1

	IRREP	# MOs	# FZDC	# DOCC	# SOCC	# VIRT	# FZVR
	-----	-----	------	------	------	------	------
	 A1	   18	    1	    1	    1	    15	    0
	 A2	   4	    0	    0	    0	    4	    0
	 B1	   7	    0	    0	    1	    6	    0
	 B2	   12	    0	    1	    0	    11	    0
	Transforming integrals...
	IWL integrals will be deleted.
	(OO|OO)...
	Presorting SO-basis two-electron integrals.
	Sorting File: SO Ints (nn|nn) nbuckets = 1
	Transforming the one-electron integrals and constructing Fock matrices
	Starting AA/AB first half-transformation.
	Sorting AA/AB half-transformed integrals.
	Starting BB first half-transformation.
	Sorting BB half-transformed integrals.
	First half integral transformation complete.
	Starting AA second half-transformation.
	Starting AB second half-transformation.
	Starting BB second half-transformation.
	Two-electron integral transformation complete.
	(OO|OV)...
	Starting AA second half-transformation.
	Starting AB second half-transformation.
	Starting BB second half-transformation.
	Two-electron integral transformation complete.
	(OO|VV)...
	Starting AA second half-transformation.
	Starting AB second half-transformation.
	Starting BB second half-transformation.
	Two-electron integral transformation complete.
	(OV|OO)...
	Starting AA/AB first half-transformation.
	Sorting AA/AB half-transformed integrals.
	Starting BB first half-transformation.
	Sorting BB half-transformed integrals.
	First half integral transformation complete.
	Starting AA second half-transformation.
	Starting AB second half-transformation.
	Starting BB second half-transformation.
	Two-electron integral transformation complete.
	(OV|OV)...
	Starting AA second half-transformation.
	Starting AB second half-transformation.
	Starting BB second half-transformation.
	Two-electron integral transformation complete.
	(OV|VV)...
	Starting AA second half-transformation.
	Starting AB second half-transformation.
	Starting BB second half-transformation.
	Two-electron integral transformation complete.
	(VV|OO)...
	Starting AA/AB first half-transformation.
	Sorting AA/AB half-transformed integrals.
	Starting BB first half-transformation.
	Sorting BB half-transformed integrals.
	First half integral transformation complete.
	Starting AA second half-transformation.
	Starting AB second half-transformation.
	Starting BB second half-transformation.
	Two-electron integral transformation complete.
	(VV|OV)...
	Starting AA second half-transformation.
	Starting AB second half-transformation.
	Starting BB second half-transformation.
	Two-electron integral transformation complete.
	(VV|VV)...
	Starting AA second half-transformation.
	Starting AB second half-transformation.
	Starting BB second half-transformation.
	Two-electron integral transformation complete.
	Frozen core energy     =    -34.32915588660360

	Size of irrep 0 of <AB|CD> integrals:      0.033 (MW) /      0.262 (MB)
	Size of irrep 1 of <AB|CD> integrals:      0.016 (MW) /      0.127 (MB)
	Size of irrep 2 of <AB|CD> integrals:      0.018 (MW) /      0.144 (MB)
	Size of irrep 3 of <AB|CD> integrals:      0.036 (MW) /      0.286 (MB)
	Total:                                     0.102 (MW) /      0.819 (MB)

	Size of irrep 0 of <ab|cd> integrals:      0.041 (MW) /      0.326 (MB)
	Size of irrep 1 of <ab|cd> integrals:      0.020 (MW) /      0.159 (MB)
	Size of irrep 2 of <ab|cd> integrals:      0.024 (MW) /      0.195 (MB)
	Size of irrep 3 of <ab|cd> integrals:      0.042 (MW) /      0.333 (MB)
	Total:                                     0.127 (MW) /      1.013 (MB)

	Size of irrep 0 of <Ab|Cd> integrals:      0.176 (MW) /      1.404 (MB)
	Size of irrep 1 of <Ab|Cd> integrals:      0.071 (MW) /      0.570 (MB)
	Size of irrep 2 of <Ab|Cd> integrals:      0.084 (MW) /      0.668 (MB)
	Size of irrep 3 of <Ab|Cd> integrals:      0.154 (MW) /      1.236 (MB)
	Total:                                     0.485 (MW) /      3.879 (MB)

	Size of irrep 0 of <IA|BC> integrals:      0.019 (MW) /      0.150 (MB)
	Size of irrep 1 of <IA|BC> integrals:      0.006 (MW) /      0.050 (MB)
	Size of irrep 2 of <IA|BC> integrals:      0.008 (MW) /      0.066 (MB)
	Size of irrep 3 of <IA|BC> integrals:      0.015 (MW) /      0.124 (MB)
	Total:                                     0.049 (MW) /      0.390 (MB)

	Size of irrep 0 of <ia|bc> integrals:      0.012 (MW) /      0.095 (MB)
	Size of irrep 1 of <ia|bc> integrals:      0.003 (MW) /      0.025 (MB)
	Size of irrep 2 of <ia|bc> integrals:      0.003 (MW) /      0.027 (MB)
	Size of irrep 3 of <ia|bc> integrals:      0.011 (MW) /      0.088 (MB)
	Total:                                     0.029 (MW) /      0.236 (MB)

	Size of irrep 0 of <Ia|Bc> integrals:      0.021 (MW) /      0.168 (MB)
	Size of irrep 1 of <Ia|Bc> integrals:      0.007 (MW) /      0.056 (MB)
	Size of irrep 2 of <Ia|Bc> integrals:      0.010 (MW) /      0.079 (MB)
	Size of irrep 3 of <Ia|Bc> integrals:      0.017 (MW) /      0.132 (MB)
	Total:                                     0.054 (MW) /      0.434 (MB)

	Size of irrep 0 of <iA|bC> integrals:      0.011 (MW) /      0.087 (MB)
	Size of irrep 1 of <iA|bC> integrals:      0.003 (MW) /      0.021 (MB)
	Size of irrep 2 of <iA|bC> integrals:      0.003 (MW) /      0.023 (MB)
	Size of irrep 3 of <iA|bC> integrals:      0.010 (MW) /      0.082 (MB)
	Total:                                     0.027 (MW) /      0.213 (MB)

	Size of irrep 0 of tIjAb amplitudes:       0.001 (MW) /      0.010 (MB)
	Size of irrep 1 of tIjAb amplitudes:       0.000 (MW) /      0.002 (MB)
	Size of irrep 2 of tIjAb amplitudes:       0.000 (MW) /      0.002 (MB)
	Size of irrep 3 of tIjAb amplitudes:       0.001 (MW) /      0.009 (MB)
	Total:                                     0.003 (MW) /      0.024 (MB)

	Nuclear Rep. energy          =      6.18048606625200
	SCF energy                   =    -38.92820805624005
	One-electron energy          =    -17.75888377822190
	Two-electron (AA) energy     =      2.58112314996043
	Two-electron (BB) energy     =      0.36151948658414
	Two-electron (AB) energy     =      4.03670290578889
	Two-electron energy          =      6.97934554233345
	Reference energy             =    -38.92820805624005

*** tstop() called on l48 at Thu Jan 14 12:09:45 2021
Module time:
	user time   =       0.36 seconds =       0.01 minutes
	system time =       0.61 seconds =       0.01 minutes
	total time  =          2 seconds =       0.03 minutes
Total time:
	user time   =       0.65 seconds =       0.01 minutes
	system time =       0.65 seconds =       0.01 minutes
	total time  =          3 seconds =       0.05 minutes

*** tstart() called on l48
*** at Thu Jan 14 12:09:45 2021

            **************************
            *                        *
            *        CCENERGY        *
            *                        *
            **************************

    Nuclear Rep. energy (wfn)     =    6.180486066251998
    SCF energy          (wfn)     =  -38.928208056240052
    Reference energy    (file100) =  -38.928208056240052

    Input parameters:
    -----------------
    Wave function   =     CCSD
    Reference wfn   =     UHF
    Brueckner       =     No
    Memory (Mbytes) =     250000.0
    Maxiter         =     50
    R_Convergence   =     1.0e-07
    E_Convergence   =     1.0e-06
    Restart         =     Yes
    DIIS            =     Yes
    AO Basis        =     NONE
    ABCD            =     NEW
    Cache Level     =     2
    Cache Type      =     LRU
    Print Level     =     1
    Num. of threads =     1
    # Amps to Print =     10
    Print MP2 Amps? =     No
    Analyze T2 Amps =     No
    Print Pair Ener =     No
    Local CC        =     No
    SCS-MP2         =     False
    SCSN-MP2        =     False
    SCS-CCSD        =     False

MP2 correlation energy -0.0967865453431481
                Solving CC Amplitude Equations
                ------------------------------
  Iter             Energy              RMS        T1Diag      D1Diag    New D1Diag    D2Diag
  ----     ---------------------    ---------   ----------  ----------  ----------   --------
     0        -0.096786545343148    0.000e+00    0.000000    0.000000    0.000000    0.000000
     1        -0.112009506327301    3.977e-02    0.007524    0.000000    0.000000    0.000000
     2        -0.116914391144369    1.572e-02    0.012949    0.000000    0.000000    0.000000
     3        -0.117321980582327    5.436e-03    0.015619    0.000000    0.000000    0.000000
     4        -0.117337625498178    1.498e-03    0.016054    0.000000    0.000000    0.000000
     5        -0.117348148540500    5.118e-04    0.016122    0.000000    0.000000    0.000000
     6        -0.117352685018517    1.922e-04    0.016101    0.000000    0.000000    0.000000
     7        -0.117353984401330    6.454e-05    0.016090    0.000000    0.000000    0.000000
     8        -0.117354069975499    1.996e-05    0.016087    0.000000    0.000000    0.000000
     9        -0.117354014261570    5.995e-06    0.016086    0.000000    0.000000    0.000000
    10        -0.117354028858039    2.219e-06    0.016086    0.000000    0.000000    0.000000
    11        -0.117354018218691    6.269e-07    0.016086    0.000000    0.000000    0.000000
    12        -0.117354019193017    2.037e-07    0.016086    0.000000    0.000000    0.000000
    13        -0.117354017586112    5.783e-08    0.016086    0.000000    0.000000    0.000000
    13        -0.117354017586112    5.783e-08    0.016086    0.000000    0.000000    0.000000

    Iterations converged.

    CCSD corr. energy   =   -0.117354017586112
    PPL corr. energy    =    0.027200004144151
    OS PPL corr. energy =    0.022953534036869
    SS PPL corr. energy =    0.004246470107282
    Largest TIA Amplitudes:
              2  19        -0.0147747718
              1   1         0.0113414721
              0   3        -0.0096663724
              2  20        -0.0093421094
              1   4        -0.0075752947
              0   7        -0.0047138529
              3  27        -0.0041158150
              1   5        -0.0038278571
              3  33         0.0036571643
              0   8         0.0033076840

    Largest Tia Amplitudes:
              0   4         0.0115096389
              0   3        -0.0108682596
              0   1         0.0101929056
              0   8         0.0093809933
              0   2         0.0084646622
              0   9        -0.0075714564
              1  33         0.0061755795
              0   6        -0.0057587431
              0  14        -0.0049406922
              1  36         0.0047776534

    Largest TIJAB Amplitudes:
      2   1  22   8        -0.0214692144
      2   1  20   4        -0.0202374711
      3   2  31  22        -0.0174266802
      3   2  15   3         0.0172834268
      2   1  23  10         0.0156750871
      3   1  31   8        -0.0156377733
      3   2  27  22        -0.0145820185
      3   1  27   8        -0.0145048559
      2   1  22   1         0.0144101660
      2   1  19   8        -0.0131251030

    Largest Tijab Amplitudes:
      1   0  21  18        -0.0071831161
      1   0  21  16        -0.0068113392
      1   0  29   3         0.0064704832
      1   0  30   4        -0.0059587838
      1   0  30   8        -0.0056220536
      1   0  33   3         0.0051064554
      1   0  29   1        -0.0048413873
      1   0  20  16        -0.0047414774
      1   0  21  17         0.0047276807
      1   0  20  18        -0.0044212242

    Largest TIjAb Amplitudes:
      3   1  31  33        -0.0356947973
      2   0   3  21        -0.0325996847
      3   1   3   4        -0.0315831250
      3   1  27  29        -0.0293504282
      3   1  27  33        -0.0275727900
      3   1   3   8        -0.0244895963
      3   1  31  29        -0.0242033392
      2   1  22  33        -0.0220299717
      2   0   4  21        -0.0214409338
      1   0  20  21         0.0213076062

    SCF energy       (wfn)                    =  -38.928208056240052
    Reference energy (file100)                =  -38.928208056240052

    Opposite-spin MP2 correlation energy      =   -0.074412404511039
    Same-spin MP2 correlation energy          =   -0.022374140832109
    MP2 correlation energy                    =   -0.096786545343148
      * MP2 total energy                      =  -39.024994601583202

    Opposite-spin CCSD correlation energy     =   -0.093025423469820
    Same-spin CCSD correlation energy         =   -0.024328594123158
    CCSD correlation energy                   =   -0.117354017586112
      * CCSD total energy                     =  -39.045562073826162

*** tstop() called on l48 at Thu Jan 14 12:09:51 2021
Module time:
	user time   =       0.93 seconds =       0.02 minutes
	system time =       1.75 seconds =       0.03 minutes
	total time  =          6 seconds =       0.10 minutes
Total time:

*** Psi4 exiting successfully. Buy a developer a beer!
