                               Psi4 1.2a1.dev939

  ==> Input File <==

--------------------------------------------------------------------------
# Any line starting with the # character is a comment line
memory 250000 mb
molecule molecule{
0 3
C          0.0000000000        0.0000000000        0.0617255311
H          0.0000000000        0.9845500245       -0.3677725628
H          0.0000000000       -0.9845500245       -0.3677725628
}

set {
  reference uhf
  basis aug-cc-pv(6+d)z
  scf_type OUT_OF_CORE
  freeze_core true
}

energy('ccsd')
--------------------------------------------------------------------------

    Molecular point group: c2v

    Geometry (in Angstrom), charge = 0, multiplicity = 3:

       Center              X                  Y                   Z               Mass
    ------------   -----------------  -----------------  -----------------  -----------------
           C          0.000000000000     0.000000000000     0.061767942019    12.000000000000
           H         -0.000000000000     0.984550024500    -0.367730151881     1.007825032070
           H          0.000000000000    -0.984550024500    -0.367730151881     1.007825032070

  Charge       = 0
  Multiplicity = 3
  Basis Set: AUG-CC-PV(6+D)Z
    Blend: AUG-CC-PV(6+D)Z

    Orbital Energies (a.u.)
    -----------------------

    Alpha Occupied:

       1A1   -11.264596     2A1    -0.950353     1B2    -0.619036
       3A1    -0.453330     1B1    -0.409701

    Alpha Virtual:

       4A1     0.021204     2B2     0.032903     5A1     0.052585
       2B1     0.054799     3B2     0.086174     6A1     0.094049
       7A1     0.134989     4B2     0.138497     1A2     0.157473
       8A1     0.169134     3B1     0.171455     9A1     0.201607
       5B2     0.201980     4B1     0.209056    10A1     0.219867
       6B2     0.231222     5B1     0.240041     2A2     0.247842
       7B2     0.248282    11A1     0.256543    12A1     0.278437
       8B2     0.290810    13A1     0.336954     9B2     0.386939
       3A2     0.409721     6B1     0.421920    14A1     0.426420
       7B1     0.462862    15A1     0.463417    10B2     0.481053
       4A2     0.499423    16A1     0.505846    17A1     0.513575
       8B1     0.513594    11B2     0.523289    18A1     0.549502
      12B2     0.558451     9B1     0.561216     5A2     0.570090
      13B2     0.585503    19A1     0.597453    20A1     0.628698
       6A2     0.643496    14B2     0.656313    10B1     0.670992
      15B2     0.693147    21A1     0.722400    16B2     0.738836
      11B1     0.741789    22A1     0.745628     7A2     0.877910
      23A1     0.913367    12B1     0.935093    17B2     0.939625
      24A1     0.992531    18B2     1.006558    13B1     1.062342
      25A1     1.067028    26A1     1.099467     8A2     1.116125
      14B1     1.130516    27A1     1.133977    19B2     1.139855
       9A2     1.149365    20B2     1.174148    28A1     1.213781
      15B1     1.214676    10A2     1.217695    21B2     1.243915
      22B2     1.306715    29A1     1.313571    16B1     1.317626
      23B2     1.320606    30A1     1.330564    17B1     1.371261
      31A1     1.372259    11A2     1.391555    24B2     1.398445
      12A2     1.436539    32A1     1.439211    25B2     1.449633
      33A1     1.464343    18B1     1.489091    19B1     1.526549
      26B2     1.535318    34A1     1.555432    13A2     1.589411
      35A1     1.607456    20B1     1.618269    36A1     1.633975
      27B2     1.667910    14A2     1.689778    21B1     1.792772
      28B2     1.809621    37A1     1.894875    38A1     1.917151
      29B2     2.036404    15A2     2.107363    39A1     2.126439
      22B1     2.130610    30B2     2.171546    31B2     2.197504
      40A1     2.204964    16A2     2.246820    23B1     2.260019
      41A1     2.337446    32B2     2.356375    24B1     2.360609
      17A2     2.380852    42A1     2.411208    43A1     2.447129
      25B1     2.449287    33B2     2.465364    26B1     2.478094
      18A2     2.484228    34B2     2.498722    35B2     2.513466
      44A1     2.520936    36B2     2.598160    19A2     2.609461
      45A1     2.647612    27B1     2.669131    20A2     2.672273
      21A2     2.686266    37B2     2.703968    46A1     2.733484
      28B1     2.750328    47A1     2.790344    38B2     2.799409
      29B1     2.843187    48A1     2.856261    39B2     2.871683
      49A1     2.891939    30B1     2.996800    40B2     3.028981
      22A2     3.034131    50A1     3.041577    51A1     3.085685
      41B2     3.107587    23A2     3.122491    52A1     3.166785
      31B1     3.188255    32B1     3.230804    53A1     3.248620
      54A1     3.289976    33B1     3.309304    42B2     3.311996
      43B2     3.368928    24A2     3.370854    55A1     3.442855
      44B2     3.496420    25A2     3.501746    34B1     3.523377
      56A1     3.579602    26A2     3.627559    45B2     3.650903
      35B1     3.717707    57A1     3.740642    46B2     3.773731
      36B1     3.927107    58A1     3.954749    47B2     4.030318
      27A2     4.066049    37B1     4.150368    59A1     4.184208
      48B2     4.342363    38B1     4.370729    60A1     4.371434
      28A2     4.510757    49B2     4.513604    61A1     4.557677
      29A2     4.560942    62A1     4.590460    39B1     4.608729
      63A1     4.660939    50B2     4.669169    30A2     4.789982
      64A1     4.804208    51B2     4.825241    52B2     4.852076
      31A2     4.904795    40B1     4.935385    65A1     4.940949
      41B1     5.035504    66A1     5.041473    42B1     5.092700
      32A2     5.093080    53B2     5.101644    54B2     5.145033
      67A1     5.160324    33A2     5.189445    55B2     5.196579
      43B1     5.214083    56B2     5.221430    68A1     5.249833
      44B1     5.273557    34A2     5.292462    69A1     5.309651
      35A2     5.317511    57B2     5.323042    45B1     5.349294
      58B2     5.393656    70A1     5.415694    71A1     5.532420
      59B2     5.543268    46B1     5.715073    72A1     5.734048
      73A1     5.789357    47B1     5.821046    74A1     5.848768
      60B2     5.881905    36A2     5.901640    61B2     5.974016
      37A2     6.003728    62B2     6.030111    38A2     6.051492
      48B1     6.053881    63B2     6.279199    75A1     6.282830
      49B1     6.290942    39A2     6.305739    64B2     6.338929
      76A1     6.353579    50B1     6.360623    40A2     6.363178
      77A1     6.403823    65B2     6.431933    51B1     6.529496
      52B1     6.580615    66B2     6.594767    78A1     6.599503
      79A1     6.667600    41A2     6.796320    67B2     6.813357
      53B1     6.859274    80A1     6.884827    42A2     6.938978
      81A1     6.949696    68B2     6.992980    82A1     7.010837
      54B1     7.069264    43A2     7.295419    83A1     7.406697
      55B1     7.420105    84A1     7.452065    69B2     7.495889
      70B2     7.562793    85A1     7.593103    44A2     7.681186
      56B1     7.760424    86A1     7.840890    71B2     7.954813
      45A2     8.064176    87A1     8.090090    57B1     8.101760
      72B2     8.191556    58B1     8.224673    88A1     8.335491
      73B2     8.403293    89A1     8.495591    46A2     8.531586
      74B2     8.610136    59B1     8.666096    47A2     8.756483
      60B1     8.873202    90A1     8.923253    75B2     9.064870
      91A1     9.360296    76B2     9.452674    61B1     9.706520
      48A2     9.791474    92A1     9.870825    62B1     9.949959
      77B2     9.963094    49A2     9.967661    93A1     9.986903
      94A1    10.056192    78B2    10.144221    63B1    10.154803
      79B2    10.257016    95A1    10.260442    50A2    10.332198
      51A2    10.408331    64B1    10.441421    96A1    10.456798
      80B2    10.474732    97A1    10.510163    81B2    10.558363
      52A2    10.565070    82B2    10.784235    65B1    10.904371
      53A2    10.926794    83B2    10.985979    98A1    10.991228
      99A1    11.117508    84B2    11.285938    66B1    11.464412
      85B2    11.527666    54A2    11.665102   100A1    11.730696
      67B1    11.825525    86B2    11.924838   101A1    11.936392
      55A2    11.973107    56A2    12.272513    87B2    12.391988
     102A1    12.414247    68B1    12.443302   103A1    12.620174
      69B1    12.651495   104A1    12.720053    88B2    12.924229
      57A2    13.017071    89B2    13.018570   105A1    13.177428
      90B2    13.466688    70B1    13.520929    58A2    13.597583
     106A1    13.599782    71B1    13.800264   107A1    13.971248
      59A2    14.061218    72B1    14.375297   108A1    14.475514
      91B2    14.512981   109A1    14.618445    73B1    14.622413
      60A2    14.697223    74B1    14.714876   110A1    14.733127
      92B2    14.828824    61A2    14.906947    75B1    14.981412
      93B2    15.151812   111A1    15.249515    94B2    15.407630
      62A2    15.498277    76B1    15.531595   112A1    15.616828
      77B1    15.727243    95B2    15.765813   113A1    15.957110
      96B2    16.367320    97B2    16.637229   114A1    16.702995
      63A2    17.032289   115A1    17.063201    78B1    17.065151
     116A1    17.203549    79B1    17.241476    98B2    17.582124
      64A2    17.583439   117A1    17.583663    80B1    17.592624
      99B2    17.678633   118A1    17.814055    81B1    18.072001
     119A1    18.077087    65A2    18.152679   100B2    18.222383
     101B2    18.229812    66A2    18.492383    67A2    18.716618
     120A1    18.905272   102B2    19.029290    82B1    19.034410
     121A1    19.374678   103B2    19.463921    83B1    19.579693
      68A2    19.761173   122A1    20.065637   104B2    20.261316
     123A1    20.263195    84B1    20.354107    69A2    20.509732
     124A1    20.579471    85B1    20.656650   105B2    20.670033
     106B2    20.739148   125A1    20.752358    70A2    20.805700
     107B2    21.255365    71A2    21.523320    86B1    21.555599
     126A1    21.681463    87B1    21.773676   108B2    21.791109
     127A1    21.890985    88B1    21.905557    72A2    21.980712
     109B2    22.014397   128A1    22.017375   110B2    22.060176
      89B1    22.186105    73A2    22.197145   129A1    22.328378
     130A1    22.429894   131A1    22.482247    74A2    22.577150
      90B1    22.673854   111B2    22.721088    75A2    23.243455
     112B2    23.439075   132A1    23.562959   113B2    23.727627
      91B1    23.869867   133A1    24.125132    76A2    24.214349
     114B2    24.228121   134A1    24.459801   115B2    24.503266
      92B1    24.505178    77A2    24.513800   116B2    25.009152
     135A1    25.225599   117B2    25.708734    93B1    25.838800
      78A2    25.925254   136A1    25.991409    79A2    26.127601
      94B1    26.167629   118B2    26.951918   137A1    26.988214
     119B2    27.349375    95B1    27.449182   138A1    27.461830
     139A1    27.594188    80A2    27.601560   120B2    28.050719
     121B2    28.689911   140A1    28.784903    81A2    36.516268
      96B1    36.604425   141A1    36.807206   122B2    36.898562
     142A1    38.713806   123B2    39.854726   143A1    63.105239

    Beta Occupied:

       1A1   -11.217344     2A1    -0.779604     1B2    -0.588488

    Beta Virtual:

       3A1     0.022464     2B2     0.033136     4A1     0.042164
       1B1     0.045596     3B2     0.086741     5A1     0.097806
       6A1     0.108028     2B1     0.123468     7A1     0.137835
       4B2     0.141322     1A2     0.159908     8A1     0.178211
       3B1     0.179323     5B2     0.202615     9A1     0.214881
       4B1     0.221526     6B2     0.233830     2A2     0.249620
       7B2     0.251253    10A1     0.257266    11A1     0.268890
      12A1     0.288301     8B2     0.294251     5B1     0.301175
      13A1     0.352107     9B2     0.406029     3A2     0.420737
       6B1     0.433692    14A1     0.443568    15A1     0.474098
       7B1     0.478568    10B2     0.482263     4A2     0.500642
      16A1     0.514202     8B1     0.525594    11B2     0.528949
      17A1     0.546794    12B2     0.562819    18A1     0.567986
       9B1     0.570625     5A2     0.572709    13B2     0.591825
      19A1     0.613305    20A1     0.647434    14B2     0.662019
       6A2     0.662624    15B2     0.703723    10B1     0.734401
      21A1     0.749045    16B2     0.760821    11B1     0.773359
      22A1     0.776317     7A2     0.890574    23A1     0.925477
      17B2     0.942555    12B1     0.957913    18B2     1.013807
      24A1     1.017521    13B1     1.067936    25A1     1.079562
      26A1     1.115007     8A2     1.119309    14B1     1.135075
      27A1     1.137547    19B2     1.146472     9A2     1.150794
      20B2     1.176690    10A2     1.225713    28A1     1.226269
      15B1     1.228248    21B2     1.251543    22B2     1.309218
      23B2     1.331467    29A1     1.334635    16B1     1.340176
      30A1     1.345190    31A1     1.399549    17B1     1.401597
      24B2     1.421969    11A2     1.427399    12A2     1.445773
      25B2     1.463448    32A1     1.478667    33A1     1.487104
      18B1     1.522949    26B2     1.544691    19B1     1.553961
      34A1     1.578586    13A2     1.596193    35A1     1.625057
      20B1     1.641287    36A1     1.651641    27B2     1.673399
      14A2     1.704950    28B2     1.823213    21B1     1.841205
      37A1     1.920718    38A1     1.933887    29B2     2.045899
      15A2     2.116893    39A1     2.145438    22B1     2.147127
      30B2     2.176756    31B2     2.202920    40A1     2.214583
      16A2     2.251677    23B1     2.272472    41A1     2.346097
      32B2     2.362040    24B1     2.371224    17A2     2.384524
      42A1     2.418123    43A1     2.450069    25B1     2.451014
      33B2     2.470364    18A2     2.485914    26B1     2.487083
      34B2     2.502093    35B2     2.518793    44A1     2.533931
      36B2     2.602587    19A2     2.612173    45A1     2.658312
      27B1     2.674081    20A2     2.688838    21A2     2.705717
      37B2     2.726965    46A1     2.752310    28B1     2.769192
      38B2     2.809484    47A1     2.812178    29B1     2.855518
      48A1     2.870422    39B2     2.881446    49A1     2.906007
      30B1     3.035247    40B2     3.040164    22A2     3.045495
      50A1     3.069553    51A1     3.111502    41B2     3.128242
      23A2     3.139886    52A1     3.200268    31B1     3.212054
      32B1     3.260750    53A1     3.274027    54A1     3.311829
      42B2     3.322538    33B1     3.342025    43B2     3.378458
      24A2     3.397145    55A1     3.461566    44B2     3.511873
      25A2     3.521742    34B1     3.540906    56A1     3.594499
      26A2     3.641086    45B2     3.665405    35B1     3.761119
      57A1     3.778315    46B2     3.786181    36B1     3.960808
      58A1     3.983727    47B2     4.048884    27A2     4.082421
      37B1     4.173441    59A1     4.201851    48B2     4.356469
      38B1     4.379163    60A1     4.380846    28A2     4.515941
      49B2     4.518760    29A2     4.564149    61A1     4.578801
      62A1     4.599022    39B1     4.614596    63A1     4.665368
      50B2     4.672740    30A2     4.797698    64A1     4.814934
      51B2     4.831863    52B2     4.855987    31A2     4.909258
      40B1     4.943004    65A1     4.952747    41B1     5.042800
      66A1     5.045619    32A2     5.096638    42B1     5.099003
      53B2     5.109311    54B2     5.150864    67A1     5.163293
      33A2     5.197933    55B2     5.204034    43B1     5.217593
      56B2     5.227512    68A1     5.253037    44B1     5.278031
      34A2     5.296020    69A1     5.314631    35A2     5.320974
      57B2     5.325979    45B1     5.359340    58B2     5.397757
      70A1     5.425360    71A1     5.542021    59B2     5.551925
      46B1     5.731101    72A1     5.751222    73A1     5.804185
      47B1     5.834568    74A1     5.866787    60B2     5.889868
      36A2     5.912721    61B2     5.982706    37A2     6.027445
      62B2     6.042484    38A2     6.065140    48B1     6.065249
      63B2     6.295810    75A1     6.308487    49B1     6.314981
      39A2     6.321408    64B2     6.356700    76A1     6.367485
      50B1     6.374388    40A2     6.375253    77A1     6.427132
      65B2     6.445557    51B1     6.563206    52B1     6.603713
      66B2     6.609008    78A1     6.612610    79A1     6.687465
      41A2     6.806893    67B2     6.821335    53B1     6.892742
      80A1     6.916834    42A2     6.964527    81A1     6.969780
      68B2     7.013467    82A1     7.026027    54B1     7.089970
      43A2     7.313615    83A1     7.431366    55B1     7.458174
      84A1     7.480021    69B2     7.514197    70B2     7.582291
      85A1     7.617532    44A2     7.701451    56B1     7.790864
      86A1     7.873205    71B2     7.972204    45A2     8.078389
      87A1     8.102575    57B1     8.114506    72B2     8.205136
      58B1     8.243662    88A1     8.349684    73B2     8.410396
      89A1     8.510613    46A2     8.549576    74B2     8.624531
      59B1     8.696927    47A2     8.765794    60B1     8.889394
      90A1     8.946120    75B2     9.076643    91A1     9.370893
      76B2     9.464477    61B1     9.713659    48A2     9.802204
      92A1     9.876156    62B1     9.955456    77B2     9.969896
      49A2     9.970884    93A1     9.989928    94A1    10.063079
      78B2    10.149232    63B1    10.163083    95A1    10.264042
      79B2    10.265488    50A2    10.350213    51A2    10.409796
      64B1    10.445316    96A1    10.466566    80B2    10.480288
      97A1    10.513128    81B2    10.559753    52A2    10.570851
      82B2    10.788884    65B1    10.907112    53A2    10.929550
      83B2    10.991485    98A1    11.003453    99A1    11.124422
      84B2    11.293974    66B1    11.470357    85B2    11.533452
      54A2    11.672611   100A1    11.738641    67B1    11.837002
      86B2    11.932155   101A1    11.949045    55A2    11.982757
      56A2    12.283474    87B2    12.402550   102A1    12.424699
      68B1    12.454814   103A1    12.640478    69B1    12.676263
     104A1    12.731952    88B2    12.939824    89B2    13.032502
      57A2    13.037137   105A1    13.192154    90B2    13.483342
      70B1    13.540408    58A2    13.610774   106A1    13.618582
      71B1    13.811441   107A1    13.993449    59A2    14.077337
      72B1    14.393635   108A1    14.491461    91B2    14.532409
     109A1    14.652098    73B1    14.656647    60A2    14.710865
      74B1    14.746066   110A1    14.760936    92B2    14.840172
      61A2    14.925648    75B1    15.000506    93B2    15.161309
     111A1    15.264489    94B2    15.422897    62A2    15.519696
      76B1    15.553201   112A1    15.639546    77B1    15.751920
      95B2    15.786745   113A1    15.979757    96B2    16.385373
      97B2    16.651461   114A1    16.714542    63A2    17.054889
     115A1    17.097045    78B1    17.100466   116A1    17.220832
      79B1    17.264681    98B2    17.582887    64A2    17.584199
     117A1    17.585110    80B1    17.593477    99B2    17.694966
     118A1    17.832699    81B1    18.075415   119A1    18.083379
      65A2    18.157166   100B2    18.232248   101B2    18.245690
      66A2    18.510739    67A2    18.734525   120A1    18.915326
     102B2    19.040335    82B1    19.051333   121A1    19.382775
     103B2    19.468176    83B1    19.586100    68A2    19.768186
     122A1    20.073069   104B2    20.265595   123A1    20.286325
      84B1    20.371241    69A2    20.516947   124A1    20.582163
      85B1    20.658573   105B2    20.676719   106B2    20.740470
     125A1    20.757301    70A2    20.807279   107B2    21.260239
      71A2    21.525913    86B1    21.558241   126A1    21.685948
      87B1    21.776723   108B2    21.791582   127A1    21.891466
      88B1    21.909324    72A2    21.981281   109B2    22.014995
     128A1    22.018195   110B2    22.063728    89B1    22.192767
      73A2    22.197806   129A1    22.333424   130A1    22.430594
     131A1    22.487918    74A2    22.579200    90B1    22.676040
     111B2    22.721992    75A2    23.254070   112B2    23.441758
     132A1    23.565666   113B2    23.732682    91B1    23.870258
     133A1    24.126813    76A2    24.214423   114B2    24.227887
     134A1    24.459156   115B2    24.502685    92B1    24.504244
      77A2    24.513460   116B2    25.009794   135A1    25.226425
     117B2    25.709680    93B1    25.840486    78A2    25.926923
     136A1    25.992840    79A2    26.128848    94B1    26.168670
     118B2    26.952304   137A1    26.988963   119B2    27.352233
      95B1    27.451312   138A1    27.463080   139A1    27.595454
      80A2    27.603583   120B2    28.053520   121B2    28.692539
     140A1    28.788295    81A2    36.515436    96B1    36.603603
     141A1    36.806186   122B2    36.897592   142A1    38.713348
     123B2    39.853860   143A1    63.119633

    Final Occupation by Irrep:
             A1    A2    B1    B2
    DOCC [     2,    0,    0,    1 ]
    SOCC [     1,    0,    1,    0 ]

  Energy converged.

  @UHF Final Energy:   -38.94100269147991

   => Energetics <=

    Nuclear Repulsion Energy =              6.1804860662519978
    One-Electron Energy =                 -63.9605252083312905
    Two-Electron Energy =                  18.8390364505993801
    Total Energy =                        -38.9410026914799090

  UHF NO Occupations:
  HONO-2 :    2 A1 1.9938241
  HONO-1 :    3 A1 1.0000000
  HONO-0 :    1 B1 1.0000000
  LUNO+0 :    4 A1 0.0061759
  LUNO+1 :    2 B2 0.0018564
  LUNO+2 :    5 A1 0.0000025
  LUNO+3 :    3 B2 0.0000000

Properties will be evaluated at   0.000000,   0.000000,   0.000000 Bohr

Properties computed using the SCF density matrix

  Nuclear Dipole Moment: (a.u.)
     X:     0.0000      Y:     0.0000      Z:    -0.6895

  Electronic Dipole Moment: (a.u.)
     X:     0.0000      Y:     0.0000      Z:     0.4614

  Dipole Moment: (a.u.)
     X:     0.0000      Y:     0.0000      Z:    -0.2281     Total:     0.2281

  Dipole Moment: (Debye)
     X:     0.0000      Y:     0.0000      Z:    -0.5798     Total:     0.5798

*** tstop() called on n412-020.vsc4.prov at Fri Oct 30 18:10:35 2020
Module time:
	user time   =    1584.42 seconds =      26.41 minutes
	system time =     159.12 seconds =       2.65 minutes
	total time  =       2037 seconds =      33.95 minutes
Total time:
	user time   =    1584.42 seconds =      26.41 minutes
	system time =     159.12 seconds =       2.65 minutes
	total time  =       2037 seconds =      33.95 minutes

*** tstart() called on n412-020.vsc4.prov
*** at Fri Oct 30 18:10:35 2020

	Wfn Parameters:
	--------------------
	Wavefunction         = CCSD
	Number of irreps     = 4
	Number of MOs        = 443
	Number of active MOs = 442
	AO-Basis             = NONE
	Semicanonical        = false
	Reference            = UHF
	Print Level          = 1

	IRREP	# MOs	# FZDC	# DOCC	# SOCC	# VIRT	# FZVR
	-----	-----	------	------	------	------	------
	 A1	   143	    1	    1	    1	    140	    0
	 A2	   81	    0	    0	    0	    81	    0
	 B1	   96	    0	    0	    1	    95	    0
	 B2	   123	    0	    1	    0	    122	    0
	Transforming integrals...
	IWL integrals will be deleted.
	(OO|OO)...
	Presorting SO-basis two-electron integrals.
	Sorting File: SO Ints (nn|nn) nbuckets = 1
	Transforming the one-electron integrals and constructing Fock matrices
	Starting AA/AB first half-transformation.
	Sorting AA/AB half-transformed integrals.
	Starting BB first half-transformation.
	Sorting BB half-transformed integrals.
	First half integral transformation complete.
	Starting AA second half-transformation.
	Starting AB second half-transformation.

      * MP2 total energy                      =  -39.071269180029191
      * CCSD total energy                     =  -39.087034326873173
*** Psi4 exiting successfully. Buy a developer a beer!
