                               Psi4 1.2a1.dev938

  ==> Input File <==

--------------------------------------------------------------------------
# Any line starting with the # character is a comment line
memory 250000 mb
molecule molecule{
0 3
C          0.0000000000        0.0000000000        0.0617255311
H          0.0000000000        0.9845500245       -0.3677725628
H          0.0000000000       -0.9845500245       -0.3677725628
}

set {
  reference uhf
  basis aug-cc-pv(q+d)z
  scf_type OUT_OF_CORE
  freeze_core true
}

energy('ccsd')
--------------------------------------------------------------------------

    Molecular point group: c2v

    Geometry (in Angstrom), charge = 0, multiplicity = 3:

       Center              X                  Y                   Z               Mass
    ------------   -----------------  -----------------  -----------------  -----------------
           C          0.000000000000     0.000000000000     0.061767942019    12.000000000000
           H         -0.000000000000     0.984550024500    -0.367730151881     1.007825032070
           H          0.000000000000    -0.984550024500    -0.367730151881     1.007825032070

  Charge       = 0
  Multiplicity = 3
  Basis Set: AUG-CC-PV(Q+D)Z
    Blend: AUG-CC-PV(Q+D)Z

    Orbital Energies (a.u.)
    -----------------------

    Alpha Occupied:

       1A1   -11.264861     2A1    -0.950450     1B2    -0.619034
       3A1    -0.453293     1B1    -0.409644

    Alpha Virtual:

       4A1     0.027496     2B2     0.040746     5A1     0.073753
       2B1     0.079776     3B2     0.123842     6A1     0.125478
       7A1     0.180651     4B2     0.181977     1A2     0.214444
       8A1     0.225376     3B1     0.226433     9A1     0.259593
       4B1     0.267021     5B2     0.273267     6B2     0.297413
      10A1     0.308929     2A2     0.311086    11A1     0.335738
       7B2     0.373675    12A1     0.454002     5B1     0.462730
       8B2     0.489538    13A1     0.567406     3A2     0.590329
      14A1     0.634961     6B1     0.637971     9B2     0.683337
      10B2     0.702925     7B1     0.704541    15A1     0.705434
      16A1     0.734777    11B2     0.758792    17A1     0.759947
       4A2     0.771626     8B1     0.772875    12B2     0.784243
      18A1     0.795469     5A2     0.864785    19A1     0.900343
       9B1     0.903407    13B2     0.925090     6A2     0.950495
      20A1     1.021430    14B2     1.060919    10B1     1.064452
      15B2     1.133966    21A1     1.143885    11B1     1.224004
       7A2     1.409305    22A1     1.436952    16B2     1.465094
      23A1     1.480651    17B2     1.512156    24A1     1.673723
      18B2     1.683957    25A1     1.697218    12B1     1.704641
      13B1     1.711636    19B2     1.763131     8A2     1.765060
      26A1     1.811294     9A2     1.904112    27A1     1.923257
      20B2     1.946781    14B1     1.957113    10A2     1.967895
      21B2     2.030324    28A1     2.038457    22B2     2.051822
      29A1     2.138585    15B1     2.143520    16B1     2.174298
      11A2     2.202280    30A1     2.255482    31A1     2.271349
      17B1     2.287469    23B2     2.296494    18B1     2.304859
      32A1     2.352533    12A2     2.401136    33A1     2.445202
      24B2     2.449318    13A2     2.481992    25B2     2.485153
      19B1     2.565440    34A1     2.594753    20B1     2.612717
      35A1     2.780999    26B2     2.782837    14A2     2.813068
      27B2     2.875314    36A1     3.032547    28B2     3.304934
      37A1     3.317069    29B2     3.478149    38A1     3.522678
      21B1     3.539513    15A2     3.557113    22B1     3.668247
      30B2     3.801196    39A1     3.874814    16A2     3.874816
      31B2     4.003383    40A1     4.173800    32B2     4.221815
      17A2     4.251502    41A1     4.309387    23B1     4.309737
      42A1     4.594704    33B2     4.840006    24B1     5.843399
      34B2     5.913439    18A2     5.916883    43A1     5.919279
      44A1     5.964126    25B1     5.965034    45A1     6.012823
      35B2     6.049427    19A2     6.126215    26B1     6.148526
      36B2     6.383861    20A2     6.385272    27B1     6.393807
      46A1     6.396153    28B1     6.439846    47A1     6.470829
      48A1     6.663564    37B2     6.675404    38B2     6.829592
      21A2     6.832398    29B1     6.865422    49A1     6.918406
      50A1     7.070459    30B1     7.174749    39B2     7.191800
      51A1     7.423723    40B2     7.610218    31B1     7.617416
      22A2     7.642492    52A1     7.914765    41B2     8.011269
      53A1     8.209002    23A2     8.245963    24A2     8.368222
      32B1     8.422321    54A1     8.462500    42B2     8.483761
      43B2     8.562534    33B1     8.970009    44B2     9.171118
      55A1     9.186765    45B2     9.246122    25A2     9.291070
      26A2     9.344013    56A1     9.535190    34B1     9.638817
      57A1     9.703632    46B2     9.954277    27A2    10.410430
      35B1    10.471888    47B2    10.545016    58A1    10.562868
      48B2    11.040252    59A1    11.179725    60A1    12.164401
      49B2    13.288311    61A1    25.753884

    Beta Occupied:

       1A1   -11.217513     2A1    -0.779686     1B2    -0.588472

    Beta Virtual:

       3A1     0.029327     2B2     0.041106     4A1     0.052558
       1B1     0.059464     3B2     0.125298     5A1     0.130589
       6A1     0.135677     2B1     0.156891     7A1     0.187272
       4B2     0.188084     1A2     0.220860     3B1     0.239966
       8A1     0.240055     5B2     0.274257     9A1     0.287833
       4B1     0.297828     6B2     0.300192     2A2     0.313401
      10A1     0.334427    11A1     0.353735     7B2     0.388917
      12A1     0.479280     8B2     0.509885     5B1     0.546630
       3A2     0.609412    13A1     0.616295     6B1     0.669054
      14A1     0.670984     9B2     0.687657    15A1     0.711927
      10B2     0.712001     7B1     0.712306    16A1     0.761880
      11B2     0.764710     4A2     0.775986    17A1     0.783463
       8B1     0.801449    12B2     0.809870    18A1     0.819058
       5A2     0.892163    19A1     0.925460     9B1     0.931851
      13B2     0.935445     6A2     0.964474    20A1     1.047025
      14B2     1.066602    10B1     1.086965    15B2     1.152889
      21A1     1.183685    11B1     1.278219     7A2     1.416690
      22A1     1.457340    16B2     1.472818    23A1     1.502827
      17B2     1.534684    24A1     1.682981    18B2     1.690580
      12B1     1.715439    25A1     1.716211    13B1     1.744380
      19B2     1.767672     8A2     1.768513    26A1     1.840367
       9A2     1.915026    27A1     1.931329    20B2     1.949290
      14B1     1.969796    10A2     1.998343    21B2     2.034961
      28A1     2.057515    22B2     2.072661    15B1     2.182528
      29A1     2.209502    11A2     2.235972    16B1     2.240677
      30A1     2.287989    23B2     2.323548    31A1     2.325893
      17B1     2.330802    18B1     2.355120    32A1     2.399582
      12A2     2.416112    24B2     2.468703    33A1     2.469289
      13A2     2.507808    25B2     2.511594    19B1     2.595728
      34A1     2.617517    20B1     2.633835    35A1     2.799327
      26B2     2.802621    14A2     2.830627    27B2     2.895726
      36A1     3.058541    28B2     3.311875    37A1     3.332773
      29B2     3.490868    38A1     3.539952    21B1     3.555837
      15A2     3.566884    22B1     3.681510    30B2     3.808509
      16A2     3.890014    39A1     3.895101    31B2     4.017096
      40A1     4.184448    32B2     4.244261    17A2     4.280615
      41A1     4.332846    23B1     4.334944    42A1     4.618741
      33B2     4.851726    24B1     5.881379    34B2     5.937493
      18A2     5.940526    43A1     5.951717    44A1     6.005446
      25B1     6.008735    45A1     6.053904    35B2     6.076787
      19A2     6.160265    26B1     6.193780    36B2     6.417586
      20A2     6.417771    46A1     6.442463    27B1     6.448690
      28B1     6.504339    47A1     6.531349    37B2     6.702264
      48A1     6.703494    38B2     6.845293    21A2     6.845493
      29B1     6.888229    49A1     6.932468    50A1     7.092520
      30B1     7.209930    39B2     7.218343    51A1     7.467895
      40B2     7.623381    31B1     7.638107    22A2     7.682676
      52A1     7.925104    41B2     8.021818    53A1     8.212264
      23A2     8.250709    24A2     8.378403    32B1     8.426242
      54A1     8.469305    42B2     8.487224    43B2     8.568625
      33B1     8.971899    44B2     9.176261    55A1     9.190610
      45B2     9.250899    25A2     9.294264    26A2     9.346323
      56A1     9.540487    34B1     9.642917    57A1     9.705622
      46B2     9.957256    27A2    10.423424    35B1    10.486373
      47B2    10.556532    58A1    10.569493    48B2    11.045488
      59A1    11.188970    60A1    12.173051    49B2    13.293650
      61A1    25.781383

    Final Occupation by Irrep:
             A1    A2    B1    B2
    DOCC [     2,    0,    0,    1 ]
    SOCC [     1,    0,    1,    0 ]

  Energy converged.

  @UHF Final Energy:   -38.94039185963400

   => Energetics <=

    Nuclear Repulsion Energy =              6.1804860662519987
    One-Electron Energy =                 -63.9588009412751006
    Two-Electron Energy =                  18.8379230153891051
    PCM Polarization Energy =               0.0000000000000000
    Total Energy =                        -38.9403918596339906

    Alert: EFP and PCM quantities not currently incorporated into SCF psivars.
  UHF NO Occupations:
  HONO-2 :    2 A1 1.9938280
  HONO-1 :    3 A1 1.0000000
  HONO-0 :    1 B1 1.0000000
  LUNO+0 :    4 A1 0.0061720
  LUNO+1 :    2 B2 0.0018559
  LUNO+2 :    5 A1 0.0000023
  LUNO+3 :    3 B2 0.0000000

Properties will be evaluated at   0.000000,   0.000000,   0.000000 Bohr

Properties computed using the SCF density matrix

  Nuclear Dipole Moment: (a.u.)
     X:     0.0000      Y:     0.0000      Z:    -0.6895

  Electronic Dipole Moment: (a.u.)
     X:     0.0000      Y:     0.0000      Z:     0.4612

  Dipole Moment: (a.u.)
     X:     0.0000      Y:     0.0000      Z:    -0.2283     Total:     0.2283

  Dipole Moment: (Debye)
     X:     0.0000      Y:     0.0000      Z:    -0.5802     Total:     0.5802

*** tstop() called on cqc05 at Thu Aug 20 20:22:10 2020
Module time:
	user time   =      13.60 seconds =       0.23 minutes
	system time =       0.97 seconds =       0.02 minutes
	total time  =         14 seconds =       0.23 minutes
Total time:
	user time   =      13.60 seconds =       0.23 minutes
	system time =       0.97 seconds =       0.02 minutes
	total time  =         14 seconds =       0.23 minutes

*** tstart() called on cqc05
*** at Thu Aug 20 20:22:10 2020

	Wfn Parameters:
	--------------------
	Wavefunction         = CCSD
	Number of irreps     = 4
	Number of MOs        = 172
	Number of active MOs = 171
	AO-Basis             = NONE
	Semicanonical        = false
	Reference            = UHF
	Print Level          = 1

	IRREP	# MOs	# FZDC	# DOCC	# SOCC	# VIRT	# FZVR
	-----	-----	------	------	------	------	------
	 A1	   61	    1	    1	    1	    58	    0
	 A2	   27	    0	    0	    0	    27	    0
	 B1	   35	    0	    0	    1	    34	    0
	 B2	   49	    0	    1	    0	    48	    0
	Transforming integrals...
	IWL integrals will be deleted.
	(OO|OO)...
	Presorting SO-basis two-electron integrals.
	Sorting File: SO Ints (nn|nn) nbuckets = 1
	Transforming the one-electron integrals and constructing Fock matrices
	Starting AA/AB first half-transformation.
	Sorting AA/AB half-transformed integrals.
	Starting BB first half-transformation.
	Sorting BB half-transformed integrals.
	First half integral transformation complete.
	Starting AA second half-transformation.
	Starting AB second half-transformation.
	Starting BB second half-transformation.
	Two-electron integral transformation complete.
	(OO|OV)...
	Starting AA second half-transformation.
	Starting AB second half-transformation.
	Starting BB second half-transformation.
	Two-electron integral transformation complete.
	(OO|VV)...
	Starting AA second half-transformation.
	Starting AB second half-transformation.
	Starting BB second half-transformation.
	Two-electron integral transformation complete.
	(OV|OO)...
	Starting AA/AB first half-transformation.
	Sorting AA/AB half-transformed integrals.
	Starting BB first half-transformation.
	Sorting BB half-transformed integrals.
	First half integral transformation complete.
	Starting AA second half-transformation.
	Starting AB second half-transformation.
	Starting BB second half-transformation.
	Two-electron integral transformation complete.
	(OV|OV)...
	Starting AA second half-transformation.
	Starting AB second half-transformation.
	Starting BB second half-transformation.
	Two-electron integral transformation complete.
	(OV|VV)...
	Starting AA second half-transformation.
	Starting AB second half-transformation.
	Starting BB second half-transformation.
	Two-electron integral transformation complete.
	(VV|OO)...
	Starting AA/AB first half-transformation.
	Sorting AA/AB half-transformed integrals.
	Starting BB first half-transformation.
	Sorting BB half-transformed integrals.
	First half integral transformation complete.
	Starting AA second half-transformation.
	Starting AB second half-transformation.
	Starting BB second half-transformation.
	Two-electron integral transformation complete.
	(VV|OV)...
	Starting AA second half-transformation.
	Starting AB second half-transformation.
	Starting BB second half-transformation.
	Two-electron integral transformation complete.
	(VV|VV)...
	Starting AA second half-transformation.
	Starting AB second half-transformation.
	Starting BB second half-transformation.
	Two-electron integral transformation complete.
	Frozen core energy     =    -34.32997078014407

	Size of irrep 0 of <AB|CD> integrals:     13.638 (MW) /    109.106 (MB)
	Size of irrep 1 of <AB|CD> integrals:     10.227 (MW) /     81.818 (MB)
	Size of irrep 2 of <AB|CD> integrals:     10.680 (MW) /     85.439 (MB)
	Size of irrep 3 of <AB|CD> integrals:     13.705 (MW) /    109.638 (MB)
	Total:                                    48.250 (MW) /    386.001 (MB)

	Size of irrep 0 of <ab|cd> integrals:     14.326 (MW) /    114.610 (MB)
	Size of irrep 1 of <ab|cd> integrals:     10.713 (MW) /     85.700 (MB)
	Size of irrep 2 of <ab|cd> integrals:     11.296 (MW) /     90.371 (MB)
	Size of irrep 3 of <ab|cd> integrals:     14.266 (MW) /    114.126 (MB)
	Total:                                    50.601 (MW) /    404.806 (MB)

	Size of irrep 0 of <Ab|Cd> integrals:     58.446 (MW) /    467.568 (MB)
	Size of irrep 1 of <Ab|Cd> integrals:     41.874 (MW) /    334.991 (MB)
	Size of irrep 2 of <Ab|Cd> integrals:     43.930 (MW) /    351.443 (MB)
	Size of irrep 3 of <Ab|Cd> integrals:     55.935 (MW) /    447.484 (MB)
	Total:                                   200.186 (MW) /   1601.486 (MB)

	Size of irrep 0 of <IA|BC> integrals:      1.495 (MW) /     11.964 (MB)
	Size of irrep 1 of <IA|BC> integrals:      0.870 (MW) /      6.959 (MB)
	Size of irrep 2 of <IA|BC> integrals:      1.000 (MW) /      8.000 (MB)
	Size of irrep 3 of <IA|BC> integrals:      1.340 (MW) /     10.721 (MB)
	Total:                                     4.705 (MW) /     37.644 (MB)

	Size of irrep 0 of <ia|bc> integrals:      0.828 (MW) /      6.625 (MB)
	Size of irrep 1 of <ia|bc> integrals:      0.406 (MW) /      3.247 (MB)
	Size of irrep 2 of <ia|bc> integrals:      0.417 (MW) /      3.334 (MB)
	Size of irrep 3 of <ia|bc> integrals:      0.808 (MW) /      6.466 (MB)
	Total:                                     2.459 (MW) /     19.672 (MB)

	Size of irrep 0 of <Ia|Bc> integrals:      1.537 (MW) /     12.293 (MB)
	Size of irrep 1 of <Ia|Bc> integrals:      0.887 (MW) /      7.092 (MB)
	Size of irrep 2 of <Ia|Bc> integrals:      1.034 (MW) /      8.272 (MB)
	Size of irrep 3 of <Ia|Bc> integrals:      1.361 (MW) /     10.889 (MB)
	Total:                                     4.818 (MW) /     38.547 (MB)

	Size of irrep 0 of <iA|bC> integrals:      0.810 (MW) /      6.483 (MB)
	Size of irrep 1 of <iA|bC> integrals:      0.395 (MW) /      3.158 (MB)
	Size of irrep 2 of <iA|bC> integrals:      0.404 (MW) /      3.234 (MB)
	Size of irrep 3 of <iA|bC> integrals:      0.793 (MW) /      6.342 (MB)
	Total:                                     2.402 (MW) /     19.217 (MB)

	Size of irrep 0 of tIjAb amplitudes:       0.023 (MW) /      0.183 (MB)
	Size of irrep 1 of tIjAb amplitudes:       0.006 (MW) /      0.052 (MB)
	Size of irrep 2 of tIjAb amplitudes:       0.007 (MW) /      0.053 (MB)
	Size of irrep 3 of tIjAb amplitudes:       0.022 (MW) /      0.179 (MB)
	Total:                                     0.058 (MW) /      0.468 (MB)

	Nuclear Rep. energy          =      6.18048606625200
	SCF energy                   =    -38.94039185963400
	One-electron energy          =    -17.78123368787067
	Two-electron (AA) energy     =      2.58566118923824
	Two-electron (BB) energy     =      0.36172730453026
	Two-electron (AB) energy     =      4.04293804836022
	Two-electron energy          =      6.99032654212871
	Reference energy             =    -38.94039185963403

*** tstop() called on cqc05 at Thu Aug 20 20:22:40 2020
Module time:
	user time   =      17.53 seconds =       0.29 minutes
	system time =      11.14 seconds =       0.19 minutes
	total time  =         30 seconds =       0.50 minutes
Total time:
	user time   =      31.13 seconds =       0.52 minutes
	system time =      12.11 seconds =       0.20 minutes
	total time  =         44 seconds =       0.73 minutes

*** tstart() called on cqc05
*** at Thu Aug 20 20:22:40 2020

            **************************
            *                        *
            *        CCENERGY        *
            *                        *
            **************************

    Nuclear Rep. energy (wfn)     =    6.180486066251999
    SCF energy          (wfn)     =  -38.940391859633998
    Reference energy    (file100) =  -38.940391859634033

    Input parameters:
    -----------------
    Wave function   =     CCSD
    Reference wfn   =     UHF
    Brueckner       =     No
    Memory (Mbytes) =     250000.0
    Maxiter         =     50
    R_Convergence   =     1.0e-07
    E_Convergence   =     1.0e-06
    Restart         =     Yes
    DIIS            =     Yes
    AO Basis        =     NONE
    ABCD            =     NEW
    Cache Level     =     2
    Cache Type      =     LRU
    Print Level     =     1
    Num. of threads =     4
    # Amps to Print =     10
    Print MP2 Amps? =     No
    Analyze T2 Amps =     No
    Print Pair Ener =     No
    Local CC        =     No
    SCS-MP2         =     False
    SCSN-MP2        =     False
    SCS-CCSD        =     False

MP2 correlation energy -0.1264988995771531
                Solving CC Amplitude Equations
                ------------------------------
  Iter             Energy              RMS        T1Diag      D1Diag    New D1Diag    D2Diag
  ----     ---------------------    ---------   ----------  ----------  ----------   --------
     0        -0.126498899577154    0.000e+00    0.000000    0.000000    0.000000    0.000000
     1        -0.138543539739215    3.825e-02    0.008819    0.000000    0.000000    0.000000
     2        -0.143334836436156    1.537e-02    0.014059    0.000000    0.000000    0.000000
     3        -0.143706271622012    5.360e-03    0.016604    0.000000    0.000000    0.000000
     4        -0.143729051818758    1.754e-03    0.017312    0.000000    0.000000    0.000000
     5        -0.143733801802270    5.617e-04    0.017421    0.000000    0.000000    0.000000
     6        -0.143736099673411    1.925e-04    0.017418    0.000000    0.000000    0.000000
     7        -0.143738171491515    7.880e-05    0.017409    0.000000    0.000000    0.000000
     8        -0.143738478862049    2.338e-05    0.017406    0.000000    0.000000    0.000000
     9        -0.143738225882387    6.995e-06    0.017406    0.000000    0.000000    0.000000
    10        -0.143738261430316    2.570e-06    0.017406    0.000000    0.000000    0.000000
    11        -0.143738272678686    9.445e-07    0.017406    0.000000    0.000000    0.000000
    12        -0.143738285609941    2.665e-07    0.017406    0.000000    0.000000    0.000000
    13        -0.143738285931213    8.647e-08    0.017406    0.000000    0.000000    0.000000

      * MP2 total energy                      =  -39.066890759211184
      * CCSD total energy                     =  -39.084130145565247
*** Psi4 exiting successfully. Buy a developer a beer!
