                               Psi4 1.4a3.dev88

  ==> Input File <==

--------------------------------------------------------------------------
# Any line starting with the # character is a comment line
memory 250000 mb
molecule molecule{
1 3
Cl          0.0000000000        0.0000000000        0.0000000000
}

set {
  reference uhf
  basis aug-cc-pv(5+d)z
  scf_type OUT_OF_CORE
  freeze_core true
}

energy('ccsd(t)')
--------------------------------------------------------------------------

    Molecular point group: d2h
    Geometry (in Angstrom), charge = 1, multiplicity = 3:

       Center              X                  Y                   Z               Mass
    ------------   -----------------  -----------------  -----------------  -----------------
         CL           0.000000000000     0.000000000000     0.000000000000    34.968852682000

  Charge       = 1
  Multiplicity = 3
  Basis Set: AUG-CC-PV(5+D)Z
    Blend: AUG-CC-PV(5+D)Z

    Orbital Energies [Eh]
    ---------------------

    Alpha Occupied:

       1Ag  -105.373443     2Ag   -11.087501     1B3u   -8.570143
       1B2u   -8.570143     1B1u   -8.542948     3Ag    -1.600383
       2B3u   -0.996451     2B2u   -0.996451     2B1u   -0.912966

    Alpha Virtual:

       4Ag    -0.125206     3B3u   -0.084151     3B2u   -0.084151
       3B1u   -0.077293     5Ag    -0.030772     1B1g   -0.030772
       1B2g   -0.012013     1B3g   -0.012013     6Ag    -0.005326
       4B3u    0.141477     4B2u    0.141477     4B1u    0.158697
       7Ag     0.219856     2B1g    0.219856     8Ag     0.233319
       2B2g    0.249084     2B3g    0.249084     9Ag     0.260729
       5B3u    0.346944     5B2u    0.346944     5B1u    0.355961
       1Au     0.355961     6B3u    0.361606     6B2u    0.361606
       6B1u    0.363544     3B1g    0.992329    10Ag     0.992329
       7B3u    1.003554     7B2u    1.003554    11Ag     1.023087
       4B1g    1.023087     3B2g    1.024173     3B3g    1.024173
       4B3g    1.033887     4B2g    1.033887    12Ag     1.034922
      13Ag     1.042194     5B1g    1.042194     7B1u    1.045840
       5B2g    1.048325     5B3g    1.048325    14Ag     1.051624
       8B3u    1.153665     8B2u    1.153665     8B1u    1.175811
       2Au     1.175811     9B3u    1.189990     9B2u    1.189990
       9B1u    1.195035    15Ag     1.557542    10B3u    2.786614
      10B2u    2.786614     3Au     2.820200    10B1u    2.820200
      11B3u    2.840824    11B2u    2.840824    11B1u    2.847807
       6B1g    2.855661    16Ag     2.855661     6B3g    2.879739
       6B2g    2.879739     7B1g    2.891945    17Ag     2.891945
       7B2g    2.902395     7B3g    2.902395    18Ag     2.905878
       8B1g    2.926820    19Ag     2.926820     8B2g    2.965316
       8B3g    2.965316    20Ag     2.979370    12B2u    3.008326
      12B3u    3.008326    12B1u    3.025281     4Au     3.025281
      13B3u    3.038738    13B2u    3.038738     5Au     3.048515
      13B1u    3.048515    14B3u    3.054458    14B2u    3.054458
      14B1u    3.056452    15B3u    3.950900    15B2u    3.950900
      15B1u    4.005146    16B3u    6.095138    16B2u    6.095138
       6Au     6.130005    16B1u    6.130005    17B3u    6.151465
      17B2u    6.151465    17B1u    6.158722    21Ag     6.260494
       9B1g    6.782312    22Ag     6.782312     9B3g    6.817958
       9B2g    6.817958    23Ag     6.831722    24Ag     6.911517
      10B1g    6.911517    10B3g    6.943228    10B2g    6.943228
      11B1g    6.967683    25Ag     6.967683    11B2g    6.983540
      11B3g    6.983540    26Ag     6.989146    18B2u    7.202294
      18B3u    7.202294    18B1u    7.228477     7Au     7.228477
      19B3u    7.249177    19B2u    7.249177     8Au     7.264151
      19B1u    7.264151    20B3u    7.273212    20B2u    7.273212
      20B1u    7.276245    12B1g   20.005778    27Ag    20.005778
      12B3g   20.030825    12B2g   20.030825    28Ag    20.039348
      21B2u   37.440455    21B3u   37.440455    21B1u   37.464447
      29Ag    72.223911

    Beta Occupied:

       1Ag  -105.347201     2Ag   -11.063000     1B1u   -8.530099
       1B2u   -8.508306     1B3u   -8.508306     3Ag    -1.345253
       2B1u   -0.869472

    Beta Virtual:

       2B2u   -0.391507     2B3u   -0.391507     4Ag    -0.116787
       3B1u   -0.076164     3B2u   -0.072862     3B3u   -0.072862
       5Ag     0.009472     1B3g    0.009870     1B2g    0.009870
       1B1g    0.012655     6Ag     0.012655     4B1u    0.163261
       4B2u    0.176903     4B3u    0.176903     7Ag     0.255401
       8Ag     0.300431     2B3g    0.304995     2B2g    0.304995
       2B1g    0.325536     9Ag     0.325536     5B3u    0.355933
       5B2u    0.355933     1Au     0.361738     5B1u    0.361738
       6B2u    0.365342     6B3u    0.365342     6B1u    0.366542
       3B1g    1.033235    10Ag     1.033235     3B3g    1.041308
       3B2g    1.041308     4B1g    1.046171    11Ag     1.046171
       4B3g    1.048155     4B2g    1.048155    12Ag     1.048643
       7B1u    1.059221     5B3g    1.069163     5B2g    1.069163
      13Ag     1.069505     5B1g    1.069809    14Ag     1.069809
       7B2u    1.075589     7B3u    1.075589     8B2u    1.199732
       8B3u    1.199732     2Au     1.206624     8B1u    1.206624
       9B2u    1.211026     9B3u    1.211026     9B1u    1.212437
      15Ag     1.601443    10B2u    2.859243    10B3u    2.859243
       3Au     2.869665    10B1u    2.869665    11B2u    2.875718
      11B3u    2.875718    11B1u    2.877702     6B1g    2.898897
      16Ag     2.898897     6B3g    2.912021     6B2g    2.912021
       7B1g    2.920012    17Ag     2.920012     7B3g    2.924894
       7B2g    2.924894    18Ag     2.926526    19Ag     2.966567
       8B1g    2.966567     8B3g    2.985951     8B2g    2.985951
      20Ag     2.992386    12B3u    3.030386    12B2u    3.030386
      12B1u    3.042685     4Au     3.042685    13B3u    3.052331
      13B2u    3.052331     5Au     3.059263    13B1u    3.059263
      14B2u    3.063439    14B3u    3.063439    14B1u    3.064834
      15B1u    4.019767    15B2u    4.021625    15B3u    4.021625
      16B2u    6.145518    16B3u    6.145518     6Au     6.164265
      16B1u    6.164265    17B2u    6.175618    17B3u    6.175618
      17B1u    6.179417    21Ag     6.298946     9B1g    6.817606
      22Ag     6.817606     9B3g    6.839739     9B2g    6.839739
      23Ag     6.847835    10B1g    6.967837    24Ag     6.967837
      10B3g    6.985554    10B2g    6.985554    11B1g    6.998691
      25Ag     6.998691    11B3g    7.006834    11B2g    7.006834
      26Ag     7.009606    18B2u    7.246180    18B3u    7.246180
      18B1u    7.263408     7Au     7.263408    19B3u    7.276936
      19B2u    7.276936     8Au     7.286668    19B1u    7.286668
      20B2u    7.292534    20B3u    7.292534    20B1u    7.294495
      12B1g   20.040360    27Ag    20.040360    12B3g   20.050880
      12B2g   20.050880    28Ag    20.054464    21B1u   37.474009
      21B2u   37.485824    21B3u   37.485824    29Ag    72.241485

    Final Occupation by Irrep:
             Ag   B1g   B2g   B3g    Au   B1u   B2u   B3u
    DOCC [     3,    0,    0,    0,    0,    2,    1,    1 ]
    SOCC [     0,    0,    0,    0,    0,    0,    1,    1 ]

  @UHF Final Energy:  -459.05743713588038

   => Energetics <=

    Nuclear Repulsion Energy =              0.0000000000000000
    One-Electron Energy =                -627.2928107289069430
    Two-Electron Energy =                 168.2353735930265941
    Total Energy =                       -459.0574371358803774

  UHF NO Occupations:
  HONO-2 :    3 Ag 1.9948303
  HONO-1 :    2B3u 1.0000000
  HONO-0 :    2B2u 1.0000000
  LUNO+0 :    4 Ag 0.0051697
  LUNO+1 :    3B1u 0.0005712
  LUNO+2 :    3B3u 0.0000051
  LUNO+3 :    3B2u 0.0000051

Computation Completed

Properties will be evaluated at   0.000000,   0.000000,   0.000000 [a0]

Properties computed using the SCF density matrix

  Nuclear Dipole Moment: [e a0]
     X:     0.0000      Y:     0.0000      Z:     0.0000

  Electronic Dipole Moment: [e a0]
     X:     0.0000      Y:     0.0000      Z:     0.0000

  Dipole Moment: [e a0]
     X:     0.0000      Y:     0.0000      Z:     0.0000     Total:     0.0000

  Dipole Moment: [D]
     X:     0.0000      Y:     0.0000      Z:     0.0000     Total:     0.0000

*** tstop() called on n412-041.vsc4.prov at Wed Jan 20 21:47:20 2021
Module time:
	user time   =      38.51 seconds =       0.64 minutes
	system time =       3.13 seconds =       0.05 minutes
	total time  =         27 seconds =       0.45 minutes
Total time:
	user time   =      38.51 seconds =       0.64 minutes
	system time =       3.13 seconds =       0.05 minutes
	total time  =         27 seconds =       0.45 minutes

*** tstart() called on n412-041.vsc4.prov
*** at Wed Jan 20 21:47:20 2021

	Wfn Parameters:
	--------------------
	Wavefunction         = CCSD_T
	Number of irreps     = 8
	Number of MOs        = 136
	Number of active MOs = 131
	AO-Basis             = NONE
	Semicanonical        = false
	Reference            = UHF
	Print Level          = 1

	IRREP	# MOs	# FZDC	# DOCC	# SOCC	# VIRT	# FZVR
	-----	-----	------	------	------	------	------
	 Ag	   29	    2	    1	    0	    26	    0
	 B1g	   12	    0	    0	    0	    12	    0
	 B2g	   12	    0	    0	    0	    12	    0
	 B3g	   12	    0	    0	    0	    12	    0
	 Au	   8	    0	    0	    0	    8	    0
	 B1u	   21	    1	    1	    0	    19	    0
	 B2u	   21	    1	    0	    1	    19	    0
	 B3u	   21	    1	    0	    1	    19	    0
	Transforming integrals...
	IWL integrals will be deleted.
	(OO|OO)...
	Presorting SO-basis two-electron integrals.
	Sorting File: SO Ints (nn|nn) nbuckets = 1
	Constructing frozen core operators
	Starting AA/AB first half-transformation.
	Sorting AA/AB half-transformed integrals.
	Starting BB first half-transformation.
	Sorting BB half-transformed integrals.
	First half integral transformation complete.
	Starting AA second half-transformation.
	Starting AB second half-transformation.
	Starting BB second half-transformation.
	Two-electron integral transformation complete.
	(OO|OV)...
	Starting AA second half-transformation.
	Starting AB second half-transformation.
	Starting BB second half-transformation.
	Two-electron integral transformation complete.
	(OO|VV)...
	Starting AA second half-transformation.
	Starting AB second half-transformation.
	Starting BB second half-transformation.
	Two-electron integral transformation complete.
	(OV|OO)...
	Starting AA/AB first half-transformation.
	Sorting AA/AB half-transformed integrals.
	Starting BB first half-transformation.
	Sorting BB half-transformed integrals.
	First half integral transformation complete.
	Starting AA second half-transformation.
	Starting AB second half-transformation.
	Starting BB second half-transformation.
	Two-electron integral transformation complete.
	(OV|OV)...
	Starting AA second half-transformation.
	Starting AB second half-transformation.
	Starting BB second half-transformation.
	Two-electron integral transformation complete.
	(OV|VV)...
	Starting AA second half-transformation.
	Starting AB second half-transformation.
	Starting BB second half-transformation.
	Two-electron integral transformation complete.
	(VV|OO)...
	Starting AA/AB first half-transformation.
	Sorting AA/AB half-transformed integrals.
	Starting BB first half-transformation.
	Sorting BB half-transformed integrals.
	First half integral transformation complete.
	Starting AA second half-transformation.
	Starting AB second half-transformation.
	Starting BB second half-transformation.
	Two-electron integral transformation complete.
	(VV|OV)...
	Starting AA second half-transformation.
	Starting AB second half-transformation.
	Starting BB second half-transformation.
	Two-electron integral transformation complete.
	(VV|VV)...
	Starting AA second half-transformation.
	Starting AB second half-transformation.
	Starting BB second half-transformation.
	Two-electron integral transformation complete.
	Frozen core energy     =   -444.74794973914260

	Size of irrep 0 of <AB|CD> integrals:      1.132 (MW) /      9.057 (MB)
	Size of irrep 1 of <AB|CD> integrals:      0.939 (MW) /      7.512 (MB)
	Size of irrep 2 of <AB|CD> integrals:      0.939 (MW) /      7.512 (MB)
	Size of irrep 3 of <AB|CD> integrals:      0.939 (MW) /      7.512 (MB)
	Size of irrep 4 of <AB|CD> integrals:      0.796 (MW) /      6.365 (MB)
	Size of irrep 5 of <AB|CD> integrals:      1.094 (MW) /      8.753 (MB)
	Size of irrep 6 of <AB|CD> integrals:      1.094 (MW) /      8.753 (MB)
	Size of irrep 7 of <AB|CD> integrals:      1.094 (MW) /      8.753 (MB)
	Total:                                     8.027 (MW) /     64.216 (MB)

	Size of irrep 0 of <ab|cd> integrals:      1.214 (MW) /      9.715 (MB)
	Size of irrep 1 of <ab|cd> integrals:      1.016 (MW) /      8.129 (MB)
	Size of irrep 2 of <ab|cd> integrals:      0.992 (MW) /      7.936 (MB)
	Size of irrep 3 of <ab|cd> integrals:      0.992 (MW) /      7.936 (MB)
	Size of irrep 4 of <ab|cd> integrals:      0.839 (MW) /      6.712 (MB)
	Size of irrep 5 of <ab|cd> integrals:      1.145 (MW) /      9.159 (MB)
	Size of irrep 6 of <ab|cd> integrals:      1.175 (MW) /      9.400 (MB)
	Size of irrep 7 of <ab|cd> integrals:      1.175 (MW) /      9.400 (MB)
	Total:                                     8.549 (MW) /     68.389 (MB)

	Size of irrep 0 of <Ab|Cd> integrals:      5.258 (MW) /     42.063 (MB)
	Size of irrep 1 of <Ab|Cd> integrals:      3.905 (MW) /     31.237 (MB)
	Size of irrep 2 of <Ab|Cd> integrals:      3.861 (MW) /     30.890 (MB)
	Size of irrep 3 of <Ab|Cd> integrals:      3.861 (MW) /     30.890 (MB)
	Size of irrep 4 of <Ab|Cd> integrals:      3.269 (MW) /     26.151 (MB)
	Size of irrep 5 of <Ab|Cd> integrals:      4.477 (MW) /     35.820 (MB)
	Size of irrep 6 of <Ab|Cd> integrals:      4.537 (MW) /     36.295 (MB)
	Size of irrep 7 of <Ab|Cd> integrals:      4.537 (MW) /     36.295 (MB)
	Total:                                    33.705 (MW) /    269.640 (MB)

	Size of irrep 0 of <IA|BC> integrals:      0.187 (MW) /      1.497 (MB)
	Size of irrep 1 of <IA|BC> integrals:      0.112 (MW) /      0.899 (MB)
	Size of irrep 2 of <IA|BC> integrals:      0.112 (MW) /      0.899 (MB)
	Size of irrep 3 of <IA|BC> integrals:      0.112 (MW) /      0.899 (MB)
	Size of irrep 4 of <IA|BC> integrals:      0.078 (MW) /      0.628 (MB)
	Size of irrep 5 of <IA|BC> integrals:      0.144 (MW) /      1.155 (MB)
	Size of irrep 6 of <IA|BC> integrals:      0.144 (MW) /      1.155 (MB)
	Size of irrep 7 of <IA|BC> integrals:      0.144 (MW) /      1.155 (MB)
	Total:                                     1.036 (MW) /      8.287 (MB)

	Size of irrep 0 of <ia|bc> integrals:      0.105 (MW) /      0.840 (MB)
	Size of irrep 1 of <ia|bc> integrals:      0.040 (MW) /      0.323 (MB)
	Size of irrep 2 of <ia|bc> integrals:      0.064 (MW) /      0.510 (MB)
	Size of irrep 3 of <ia|bc> integrals:      0.064 (MW) /      0.510 (MB)
	Size of irrep 4 of <ia|bc> integrals:      0.037 (MW) /      0.293 (MB)
	Size of irrep 5 of <ia|bc> integrals:      0.096 (MW) /      0.770 (MB)
	Size of irrep 6 of <ia|bc> integrals:      0.069 (MW) /      0.555 (MB)
	Size of irrep 7 of <ia|bc> integrals:      0.069 (MW) /      0.555 (MB)
	Total:                                     0.544 (MW) /      4.356 (MB)

	Size of irrep 0 of <Ia|Bc> integrals:      0.195 (MW) /      1.559 (MB)
	Size of irrep 1 of <Ia|Bc> integrals:      0.119 (MW) /      0.948 (MB)
	Size of irrep 2 of <Ia|Bc> integrals:      0.116 (MW) /      0.927 (MB)
	Size of irrep 3 of <Ia|Bc> integrals:      0.116 (MW) /      0.927 (MB)
	Size of irrep 4 of <Ia|Bc> integrals:      0.080 (MW) /      0.636 (MB)
	Size of irrep 5 of <Ia|Bc> integrals:      0.146 (MW) /      1.168 (MB)
	Size of irrep 6 of <Ia|Bc> integrals:      0.149 (MW) /      1.193 (MB)
	Size of irrep 7 of <Ia|Bc> integrals:      0.149 (MW) /      1.193 (MB)
	Total:                                     1.069 (MW) /      8.553 (MB)

	Size of irrep 0 of <iA|bC> integrals:      0.103 (MW) /      0.825 (MB)
	Size of irrep 1 of <iA|bC> integrals:      0.040 (MW) /      0.316 (MB)
	Size of irrep 2 of <iA|bC> integrals:      0.061 (MW) /      0.487 (MB)
	Size of irrep 3 of <iA|bC> integrals:      0.061 (MW) /      0.487 (MB)
	Size of irrep 4 of <iA|bC> integrals:      0.036 (MW) /      0.289 (MB)
	Size of irrep 5 of <iA|bC> integrals:      0.095 (MW) /      0.762 (MB)
	Size of irrep 6 of <iA|bC> integrals:      0.066 (MW) /      0.528 (MB)
	Size of irrep 7 of <iA|bC> integrals:      0.066 (MW) /      0.528 (MB)
	Total:                                     0.528 (MW) /      4.224 (MB)

	Size of irrep 0 of tIjAb amplitudes:       0.005 (MW) /      0.037 (MB)
	Size of irrep 1 of tIjAb amplitudes:       0.000 (MW) /      0.000 (MB)
	Size of irrep 2 of tIjAb amplitudes:       0.002 (MW) /      0.016 (MB)
	Size of irrep 3 of tIjAb amplitudes:       0.002 (MW) /      0.016 (MB)
	Size of irrep 4 of tIjAb amplitudes:       0.000 (MW) /      0.000 (MB)
	Size of irrep 5 of tIjAb amplitudes:       0.004 (MW) /      0.034 (MB)
	Size of irrep 6 of tIjAb amplitudes:       0.002 (MW) /      0.017 (MB)
	Size of irrep 7 of tIjAb amplitudes:       0.002 (MW) /      0.017 (MB)
	Total:                                     0.017 (MW) /      0.136 (MB)

	Nuclear Rep. energy          =      0.00000000000000
	SCF energy                   =   -459.05743713588038
	One-electron energy          =    -21.89799990819365
	Two-electron (AA) energy     =      2.75357643205904
	Two-electron (BB) energy     =      0.42512384462597
	Two-electron (AB) energy     =      4.40981223477043
	Two-electron energy          =      7.58851251145544
	Reference energy             =   -459.05743713588083

*** tstop() called on n412-041.vsc4.prov at Wed Jan 20 21:47:40 2021
Module time:
	user time   =       4.41 seconds =       0.07 minutes
	system time =       2.88 seconds =       0.05 minutes
	total time  =         20 seconds =       0.33 minutes
Total time:
	user time   =      42.92 seconds =       0.72 minutes
	system time =       6.01 seconds =       0.10 minutes
	total time  =         47 seconds =       0.78 minutes
            **************************
            *                        *
            *        CCENERGY        *
            *                        *
            **************************

    Nuclear Rep. energy (wfn)     =    0.000000000000000
    SCF energy          (wfn)     = -459.057437135880377
    Reference energy    (file100) = -459.057437135880832

    Input parameters:
    -----------------
    Wave function   =     CCSD_T
    Reference wfn   =     UHF
    Brueckner       =     No
    Memory (Mbytes) =     250000.0
    Maxiter         =     50
    R_Convergence   =     1.0e-07
    E_Convergence   =     1.0e-06
    Restart         =     Yes
    DIIS            =     Yes
    AO Basis        =     NONE
    ABCD            =     NEW
    Cache Level     =     2
    Cache Type      =     LRU
    Print Level     =     1
    Num. of threads =     48
    # Amps to Print =     10
    Print MP2 Amps? =     No
    Analyze T2 Amps =     No
    Print Pair Ener =     No
    Local CC        =     No
    SCS-MP2         =     False
    SCSN-MP2        =     False
    SCS-CCSD        =     False

MP2 correlation energy -0.1414063923466406
                Solving CC Amplitude Equations
                ------------------------------
  Iter             Energy              RMS        T1Diag      D1Diag    New D1Diag    D2Diag
  ----     ---------------------    ---------   ----------  ----------  ----------   --------
     0        -0.141406392346641    0.000e+00    0.000000    0.000000    0.000000    0.000000
     1        -0.157175998017408    4.105e-02    0.008073    0.000000    0.000000    0.000000
     2        -0.162828281156334    1.406e-02    0.012202    0.000000    0.000000    0.000000
     3        -0.163039949095456    2.808e-03    0.013201    0.000000    0.000000    0.000000
     4        -0.163044212247754    4.498e-04    0.013262    0.000000    0.000000    0.000000
     5        -0.163040152695250    1.103e-04    0.013261    0.000000    0.000000    0.000000
     6        -0.163040832168615    2.625e-05    0.013259    0.000000    0.000000    0.000000
     7        -0.163041190009476    6.710e-06    0.013258    0.000000    0.000000    0.000000

      * MP2 total energy                      = -459.198843528227485
      * CCSD total energy                     = -459.220478301896378
      * CCSD(T) total energy                     = -459.226129033546613
*** Psi4 exiting successfully. Buy a developer a beer!
