                               Psi4 1.4a3.dev88

  ==> Input File <==

--------------------------------------------------------------------------
# Any line starting with the # character is a comment line
memory 250000 mb
molecule molecule{
1 3
Cl          0.0000000000        0.0000000000        0.0000000000
}

set {
  reference uhf
  basis aug-cc-pV(t+d)Z
  scf_type OUT_OF_CORE
  freeze_core true
}

energy('ccsd(t)')
--------------------------------------------------------------------------

    Molecular point group: d2h
    Geometry (in Angstrom), charge = 1, multiplicity = 3:

       Center              X                  Y                   Z               Mass
    ------------   -----------------  -----------------  -----------------  -----------------
         CL           0.000000000000     0.000000000000     0.000000000000    34.968852682000

  Charge       = 1
  Multiplicity = 3
  Basis Set: AUG-CC-PV(T+D)Z
    Blend: AUG-CC-PV(T+D)Z

    Orbital Energies [Eh]
    ---------------------

    Alpha Occupied:

       1Ag  -105.373839     2Ag   -11.088003     1B3u   -8.569722
       1B2u   -8.569722     1B1u   -8.542382     3Ag    -1.600468
       2B2u   -0.996379     2B3u   -0.996379     2B1u   -0.912968

    Alpha Virtual:

       4Ag    -0.111644     3B2u   -0.076486     3B3u   -0.076486
       3B1u   -0.068077     5Ag    -0.000646     1B1g   -0.000646
       1B3g    0.025993     1B2g    0.025993     6Ag     0.035886
       4B3u    0.299141     4B2u    0.299141     4B1u    0.327826
       2B1g    0.432447     7Ag     0.432447     2B2g    0.467882
       2B3g    0.467882     8Ag     0.481462     9Ag     0.551122
       5B3u    0.798865     5B2u    0.798865     5B1u    0.820379
       1Au     0.820379     6B2u    0.833762     6B3u    0.833762
       6B1u    0.838327     3B1g    1.831415    10Ag     1.831415
       3B2g    1.870096     3B3g    1.870096    11Ag     1.884123
       7B3u    2.185446     7B2u    2.185446     7B1u    2.240273
       8B3u    2.548462     8B2u    2.548462     2Au     2.585815
       8B1u    2.585815     9B2u    2.609022     9B3u    2.609022
       9B1u    2.616917    12Ag     4.576192     4B1g    8.261690
      13Ag     8.261690     4B2g    8.291080     4B3g    8.291080
      14Ag     8.301130

    Beta Occupied:

       1Ag  -105.349090     2Ag   -11.063093     1B1u   -8.529659
       1B2u   -8.509145     1B3u   -8.509145     3Ag    -1.345560
       2B1u   -0.869219

    Beta Virtual:

       2B2u   -0.391972     2B3u   -0.391972     4Ag    -0.100543
       3B1u   -0.066565     3B2u   -0.061822     3B3u   -0.061822
       5Ag     0.061991     1B3g    0.064133     1B2g    0.064133
       1B1g    0.073511     6Ag     0.073511     4B1u    0.336784
       4B2u    0.359023     4B3u    0.359023     7Ag     0.524845
       2B3g    0.530532     2B2g    0.530532     2B1g    0.551009
       8Ag     0.551009     9Ag     0.592899     5B2u    0.839910
       5B3u    0.839910     1Au     0.847543     5B1u    0.847543
       6B2u    0.852015     6B3u    0.852015     6B1u    0.853482
       3B1g    1.892364    10Ag     1.892364     3B3g    1.903350
       3B2g    1.903350    11Ag     1.906895     7B1u    2.257188
       7B2u    2.274603     7B3u    2.274603     8B2u    2.636853
       8B3u    2.636853     8B1u    2.645685     2Au     2.645685
       9B2u    2.650751     9B3u    2.650751     9B1u    2.652403
      12Ag     4.619673    13Ag     8.290545     4B1g    8.290545
       4B3g    8.307382     4B2g    8.307382    14Ag     8.313010

    Final Occupation by Irrep:
             Ag   B1g   B2g   B3g    Au   B1u   B2u   B3u
    DOCC [     3,    0,    0,    0,    0,    2,    1,    1 ]
    SOCC [     0,    0,    0,    0,    0,    0,    1,    1 ]

  @UHF Final Energy:  -459.05338337520499

   => Energetics <=

    Nuclear Repulsion Energy =              0.0000000000000000
    One-Electron Energy =                -627.2819948787032445
    Two-Electron Energy =                 168.2286115034982856
    Total Energy =                       -459.0533833752049304

  UHF NO Occupations:
  HONO-2 :    3 Ag 1.9949098
  HONO-1 :    2B3u 1.0000000
  HONO-0 :    2B2u 1.0000000
  LUNO+0 :    4 Ag 0.0050902
  LUNO+1 :    3B1u 0.0005533
  LUNO+2 :    3B2u 0.0000032
  LUNO+3 :    3B3u 0.0000032

Computation Completed

Properties will be evaluated at   0.000000,   0.000000,   0.000000 [a0]

Properties computed using the SCF density matrix

  Nuclear Dipole Moment: [e a0]
     X:     0.0000      Y:     0.0000      Z:     0.0000

  Electronic Dipole Moment: [e a0]
     X:     0.0000      Y:     0.0000      Z:     0.0000

  Dipole Moment: [e a0]
     X:     0.0000      Y:     0.0000      Z:     0.0000     Total:     0.0000

  Dipole Moment: [D]
     X:     0.0000      Y:     0.0000      Z:     0.0000     Total:     0.0000

*** tstop() called on n412-040.vsc4.prov at Tue Jan 26 18:02:11 2021
Module time:
	user time   =      12.69 seconds =       0.21 minutes
	system time =       1.05 seconds =       0.02 minutes
	total time  =          3 seconds =       0.05 minutes
Total time:
	user time   =      12.69 seconds =       0.21 minutes
	system time =       1.05 seconds =       0.02 minutes
	total time  =          3 seconds =       0.05 minutes

*** tstart() called on n412-040.vsc4.prov
*** at Tue Jan 26 18:02:11 2021

	Wfn Parameters:
	--------------------
	Wavefunction         = CCSD_T
	Number of irreps     = 8
	Number of MOs        = 55
	Number of active MOs = 50
	AO-Basis             = NONE
	Semicanonical        = false
	Reference            = UHF
	Print Level          = 1

	IRREP	# MOs	# FZDC	# DOCC	# SOCC	# VIRT	# FZVR
	-----	-----	------	------	------	------	------
	 Ag	   14	    2	    1	    0	    11	    0
	 B1g	   4	    0	    0	    0	    4	    0
	 B2g	   4	    0	    0	    0	    4	    0
	 B3g	   4	    0	    0	    0	    4	    0
	 Au	   2	    0	    0	    0	    2	    0
	 B1u	   9	    1	    1	    0	    7	    0
	 B2u	   9	    1	    0	    1	    7	    0
	 B3u	   9	    1	    0	    1	    7	    0
	Transforming integrals...
	IWL integrals will be deleted.
	(OO|OO)...
	Presorting SO-basis two-electron integrals.
	Sorting File: SO Ints (nn|nn) nbuckets = 1
	Constructing frozen core operators
	Starting AA/AB first half-transformation.
	Sorting AA/AB half-transformed integrals.
	Starting BB first half-transformation.
	Sorting BB half-transformed integrals.
	First half integral transformation complete.
	Starting AA second half-transformation.
	Starting AB second half-transformation.
	Starting BB second half-transformation.
	Two-electron integral transformation complete.
	(OO|OV)...
	Starting AA second half-transformation.
	Starting AB second half-transformation.
	Starting BB second half-transformation.
	Two-electron integral transformation complete.
	(OO|VV)...
	Starting AA second half-transformation.
	Starting AB second half-transformation.
	Starting BB second half-transformation.
	Two-electron integral transformation complete.
	(OV|OO)...
	Starting AA/AB first half-transformation.
	Sorting AA/AB half-transformed integrals.
	Starting BB first half-transformation.
	Sorting BB half-transformed integrals.
	First half integral transformation complete.
	Starting AA second half-transformation.
	Starting AB second half-transformation.
	Starting BB second half-transformation.
	Two-electron integral transformation complete.
	(OV|OV)...
	Starting AA second half-transformation.
	Starting AB second half-transformation.
	Starting BB second half-transformation.
	Two-electron integral transformation complete.
	(OV|VV)...
	Starting AA second half-transformation.
	Starting AB second half-transformation.
	Starting BB second half-transformation.
	Two-electron integral transformation complete.
	(VV|OO)...
	Starting AA/AB first half-transformation.
	Sorting AA/AB half-transformed integrals.
	Starting BB first half-transformation.
	Sorting BB half-transformed integrals.
	First half integral transformation complete.
	Starting AA second half-transformation.
	Starting AB second half-transformation.
	Starting BB second half-transformation.
	Two-electron integral transformation complete.
	(VV|OV)...
	Starting AA second half-transformation.
	Starting AB second half-transformation.
	Starting BB second half-transformation.
	Two-electron integral transformation complete.
	(VV|VV)...
	Starting AA second half-transformation.
	Starting AB second half-transformation.
	Starting BB second half-transformation.
	Two-electron integral transformation complete.
	Frozen core energy     =   -444.74512003778165

	Size of irrep 0 of <AB|CD> integrals:      0.019 (MW) /      0.150 (MB)
	Size of irrep 1 of <AB|CD> integrals:      0.015 (MW) /      0.121 (MB)
	Size of irrep 2 of <AB|CD> integrals:      0.015 (MW) /      0.121 (MB)
	Size of irrep 3 of <AB|CD> integrals:      0.015 (MW) /      0.121 (MB)
	Size of irrep 4 of <AB|CD> integrals:      0.011 (MW) /      0.090 (MB)
	Size of irrep 5 of <AB|CD> integrals:      0.020 (MW) /      0.159 (MB)
	Size of irrep 6 of <AB|CD> integrals:      0.020 (MW) /      0.159 (MB)
	Size of irrep 7 of <AB|CD> integrals:      0.020 (MW) /      0.159 (MB)
	Total:                                     0.135 (MW) /      1.080 (MB)

	Size of irrep 0 of <ab|cd> integrals:      0.023 (MW) /      0.182 (MB)
	Size of irrep 1 of <ab|cd> integrals:      0.019 (MW) /      0.152 (MB)
	Size of irrep 2 of <ab|cd> integrals:      0.017 (MW) /      0.139 (MB)
	Size of irrep 3 of <ab|cd> integrals:      0.017 (MW) /      0.139 (MB)
	Size of irrep 4 of <ab|cd> integrals:      0.013 (MW) /      0.104 (MB)
	Size of irrep 5 of <ab|cd> integrals:      0.022 (MW) /      0.178 (MB)
	Size of irrep 6 of <ab|cd> integrals:      0.024 (MW) /      0.195 (MB)
	Size of irrep 7 of <ab|cd> integrals:      0.024 (MW) /      0.195 (MB)
	Total:                                     0.161 (MW) /      1.284 (MB)

	Size of irrep 0 of <Ab|Cd> integrals:      0.112 (MW) /      0.892 (MB)
	Size of irrep 1 of <Ab|Cd> integrals:      0.068 (MW) /      0.541 (MB)
	Size of irrep 2 of <Ab|Cd> integrals:      0.065 (MW) /      0.520 (MB)
	Size of irrep 3 of <Ab|Cd> integrals:      0.065 (MW) /      0.520 (MB)
	Size of irrep 4 of <Ab|Cd> integrals:      0.048 (MW) /      0.387 (MB)
	Size of irrep 5 of <Ab|Cd> integrals:      0.084 (MW) /      0.673 (MB)
	Size of irrep 6 of <Ab|Cd> integrals:      0.088 (MW) /      0.706 (MB)
	Size of irrep 7 of <Ab|Cd> integrals:      0.088 (MW) /      0.706 (MB)
	Total:                                     0.618 (MW) /      4.945 (MB)

	Size of irrep 0 of <IA|BC> integrals:      0.010 (MW) /      0.082 (MB)
	Size of irrep 1 of <IA|BC> integrals:      0.005 (MW) /      0.039 (MB)
	Size of irrep 2 of <IA|BC> integrals:      0.005 (MW) /      0.039 (MB)
	Size of irrep 3 of <IA|BC> integrals:      0.005 (MW) /      0.039 (MB)
	Size of irrep 4 of <IA|BC> integrals:      0.003 (MW) /      0.024 (MB)
	Size of irrep 5 of <IA|BC> integrals:      0.007 (MW) /      0.059 (MB)
	Size of irrep 6 of <IA|BC> integrals:      0.007 (MW) /      0.059 (MB)
	Size of irrep 7 of <IA|BC> integrals:      0.007 (MW) /      0.059 (MB)
	Total:                                     0.050 (MW) /      0.400 (MB)

	Size of irrep 0 of <ia|bc> integrals:      0.006 (MW) /      0.050 (MB)
	Size of irrep 1 of <ia|bc> integrals:      0.002 (MW) /      0.013 (MB)
	Size of irrep 2 of <ia|bc> integrals:      0.003 (MW) /      0.025 (MB)
	Size of irrep 3 of <ia|bc> integrals:      0.003 (MW) /      0.025 (MB)
	Size of irrep 4 of <ia|bc> integrals:      0.001 (MW) /      0.011 (MB)
	Size of irrep 5 of <ia|bc> integrals:      0.005 (MW) /      0.043 (MB)
	Size of irrep 6 of <ia|bc> integrals:      0.004 (MW) /      0.030 (MB)
	Size of irrep 7 of <ia|bc> integrals:      0.004 (MW) /      0.030 (MB)
	Total:                                     0.029 (MW) /      0.228 (MB)

	Size of irrep 0 of <Ia|Bc> integrals:      0.011 (MW) /      0.091 (MB)
	Size of irrep 1 of <Ia|Bc> integrals:      0.006 (MW) /      0.046 (MB)
	Size of irrep 2 of <Ia|Bc> integrals:      0.005 (MW) /      0.043 (MB)
	Size of irrep 3 of <Ia|Bc> integrals:      0.005 (MW) /      0.043 (MB)
	Size of irrep 4 of <Ia|Bc> integrals:      0.003 (MW) /      0.025 (MB)
	Size of irrep 5 of <Ia|Bc> integrals:      0.008 (MW) /      0.060 (MB)
	Size of irrep 6 of <Ia|Bc> integrals:      0.008 (MW) /      0.064 (MB)
	Size of irrep 7 of <Ia|Bc> integrals:      0.008 (MW) /      0.064 (MB)
	Total:                                     0.054 (MW) /      0.436 (MB)

	Size of irrep 0 of <iA|bC> integrals:      0.006 (MW) /      0.048 (MB)
	Size of irrep 1 of <iA|bC> integrals:      0.002 (MW) /      0.012 (MB)
	Size of irrep 2 of <iA|bC> integrals:      0.003 (MW) /      0.022 (MB)
	Size of irrep 3 of <iA|bC> integrals:      0.003 (MW) /      0.022 (MB)
	Size of irrep 4 of <iA|bC> integrals:      0.001 (MW) /      0.011 (MB)
	Size of irrep 5 of <iA|bC> integrals:      0.005 (MW) /      0.042 (MB)
	Size of irrep 6 of <iA|bC> integrals:      0.003 (MW) /      0.026 (MB)
	Size of irrep 7 of <iA|bC> integrals:      0.003 (MW) /      0.026 (MB)
	Total:                                     0.026 (MW) /      0.210 (MB)

	Size of irrep 0 of tIjAb amplitudes:       0.001 (MW) /      0.005 (MB)
	Size of irrep 1 of tIjAb amplitudes:       0.000 (MW) /      0.000 (MB)
	Size of irrep 2 of tIjAb amplitudes:       0.000 (MW) /      0.002 (MB)
	Size of irrep 3 of tIjAb amplitudes:       0.000 (MW) /      0.002 (MB)
	Size of irrep 4 of tIjAb amplitudes:       0.000 (MW) /      0.000 (MB)
	Size of irrep 5 of tIjAb amplitudes:       0.001 (MW) /      0.005 (MB)
	Size of irrep 6 of tIjAb amplitudes:       0.000 (MW) /      0.002 (MB)
	Size of irrep 7 of tIjAb amplitudes:       0.000 (MW) /      0.002 (MB)
	Total:                                     0.002 (MW) /      0.019 (MB)

	Nuclear Rep. energy          =      0.00000000000000
	SCF energy                   =   -459.05338337520499
	One-electron energy          =    -21.89555380346222
	Two-electron (AA) energy     =      2.75319938457936
	Two-electron (BB) energy     =      0.42505056528801
	Two-electron (AB) energy     =      4.40904051617203
	Two-electron energy          =      7.58729046603940
	Reference energy             =   -459.05338337520448

*** tstop() called on n412-040.vsc4.prov at Tue Jan 26 18:02:13 2021
Module time:
	user time   =       0.17 seconds =       0.00 minutes
	system time =       0.24 seconds =       0.00 minutes
	total time  =          2 seconds =       0.03 minutes
Total time:
	user time   =      12.86 seconds =       0.21 minutes
	system time =       1.29 seconds =       0.02 minutes
	total time  =          5 seconds =       0.08 minutes
            **************************
            *                        *
            *        CCENERGY        *
            *                        *
            **************************

    Nuclear Rep. energy (wfn)     =    0.000000000000000
    SCF energy          (wfn)     = -459.053383375204987
    Reference energy    (file100) = -459.053383375204476

    Input parameters:
    -----------------
    Wave function   =     CCSD_T
    Reference wfn   =     UHF
    Brueckner       =     No
    Memory (Mbytes) =     250000.0
    Maxiter         =     50
    R_Convergence   =     1.0e-07
    E_Convergence   =     1.0e-06
    Restart         =     Yes
    DIIS            =     Yes
    AO Basis        =     NONE
    ABCD            =     NEW
    Cache Level     =     2
    Cache Type      =     LRU
    Print Level     =     1
    Num. of threads =     48
    # Amps to Print =     10
    Print MP2 Amps? =     No
    Analyze T2 Amps =     No
    Print Pair Ener =     No
    Local CC        =     No
    SCS-MP2         =     False
    SCSN-MP2        =     False
    SCS-CCSD        =     False

MP2 correlation energy -0.1253554517402085
                Solving CC Amplitude Equations
                ------------------------------
  Iter             Energy              RMS        T1Diag      D1Diag    New D1Diag    D2Diag
  ----     ---------------------    ---------   ----------  ----------  ----------   --------
     0        -0.125355451740208    0.000e+00    0.000000    0.000000    0.000000    0.000000
     1        -0.144152932042891    4.290e-02    0.007330    0.000000    0.000000    0.000000
     2        -0.150079012977661    1.446e-02    0.011576    0.000000    0.000000    0.000000
     3        -0.150341824548691    2.906e-03    0.012572    0.000000    0.000000    0.000000
     4        -0.150342764915715    3.866e-04    0.012628    0.000000    0.000000    0.000000
     5        -0.150339914250685    8.373e-05    0.012621    0.000000    0.000000    0.000000
     6        -0.150340889263758    2.283e-05    0.012619    0.000000    0.000000    0.000000
     7        -0.150341164708224    5.260e-06    0.012619    0.000000    0.000000    0.000000
     8        -0.150341071120145    1.552e-06    0.012619    0.000000    0.000000    0.000000
     9        -0.150341081530011    3.822e-07    0.012619    0.000000    0.000000    0.000000
    10        -0.150341080565855    8.825e-08    0.012619    0.000000    0.000000    0.000000

    Iterations converged.

    Largest TIA Amplitudes:
              0   2         0.0055847763
              0   4        -0.0046165728
              1  26         0.0042537190
              1  25        -0.0028633893
              0   5         0.0023883171
              1  29        -0.0015601402
              2  36        -0.0012161362
              3  43        -0.0012161362
              1  28        -0.0010245766
              0   0        -0.0010025627

    Largest Tia Amplitudes:
              0   1        -0.0206973942
              0   3        -0.0184469995
              0   5         0.0054762836
              1  28         0.0041041044
              0   7        -0.0035599869
              0   0        -0.0034127290
              1  26         0.0028357575
              1  31        -0.0026558023
              1  25        -0.0017313482
              1  29        -0.0016213403

    Largest TIJAB Amplitudes:
      3   2  11   1         0.0255529058
      3   1  15   2        -0.0223027708
      2   1  19   2        -0.0223027707
      3   2  11   3         0.0198966146
      3   2  12   1         0.0198966146
      3   1  15   4         0.0191285354
      2   1  19   4         0.0191285354
      3   1  16   2        -0.0186742300
      2   1  20   2        -0.0186742300
      3   1  16   4         0.0184187788

    Largest Tijab Amplitudes:
      1   0  32  19        -0.0153411843
      1   0  40  15        -0.0153411843
      1   0  32  20        -0.0147850841
      1   0  40  16        -0.0147850841
      1   0  26   5        -0.0073310158
      1   0  34  20         0.0051515676
      1   0  42  16         0.0051515676
      1   0  29   5         0.0046109342
      1   0  26   0         0.0044753671
      1   0  34  19         0.0041450789

      * MP2 total energy                      = -459.178738826944709
      * CCSD total energy                     = -459.203724455770327
      * CCSD(T) total energy                     = -459.208296218394366
*** Psi4 exiting successfully. Buy a developer a beer!
