                               Psi4 1.2a1.dev938

  ==> Input File <==

--------------------------------------------------------------------------
# Any line starting with the # character is a comment line
memory 250000 mb
molecule molecule{
-1 2
S          0.0000000000        0.0000000000        0.0000000000
}

set {
  reference uhf
  basis aug-cc-pv(t+d)z
  scf_type OUT_OF_CORE
  freeze_core true
}

energy('ccsd')
--------------------------------------------------------------------------

    Molecular point group: d2h
    Geometry (in Angstrom), charge = -1, multiplicity = 2:

       Center              X                  Y                   Z               Mass
    ------------   -----------------  -----------------  -----------------  -----------------
           S          0.000000000000     0.000000000000     0.000000000000    31.972070999000

  Charge       = -1
  Multiplicity = 2
  Basis Set: AUG-CC-PV(T+D)Z
    Blend: AUG-CC-PV(T+D)Z

    Orbital Energies (a.u.)
    -----------------------

    Alpha Occupied:

       1Ag   -91.680406     2Ag    -8.679948     1B3u   -6.374699
       1B1u   -6.357013     1B2u   -6.357013     3Ag    -0.634386
       2B3u   -0.173836     2B2u   -0.106095     2B1u   -0.106095

    Alpha Virtual:

       3B3u    0.249159     3B1u    0.259718     3B2u    0.259718
       4Ag     0.295269     5Ag     0.471401     1B2g    0.475894
       1B1g    0.475894     1B3g    0.492018     6Ag     0.492018
       4B3u    0.760033     4B2u    0.794799     4B1u    0.794799
       7Ag     0.950083     2B2g    0.960267     2B1g    0.960267
       2B3g    0.996411     8Ag     0.996411     9Ag     1.002045
       5B3u    1.086675     5B1u    1.089999     5B2u    1.089999
       1Au     1.100171     6B3u    1.100171     6B1u    1.118191
       6B2u    1.118191    10Ag     2.183672     3B1g    2.193038
       3B2g    2.193038     3B3g    2.223907    11Ag     2.223907
       7B3u    2.592790     8B3u    2.606781     7B2u    2.608685
       7B1u    2.608685     2Au     2.626457     9B3u    2.626457
       8B1u    2.639306     8B2u    2.639306     9B2u    2.655913
       9B1u    2.655913    12Ag     4.399370    13Ag     7.595649
       4B2g    7.601958     4B1g    7.601958    14Ag     7.621409
       4B3g    7.621409

    Beta Occupied:

       1Ag   -91.672250     2Ag    -8.671268     1B1u   -6.351811
       1B2u   -6.351811     1B3u   -6.338435     3Ag    -0.529996
       2B2u   -0.085433     2B1u   -0.085433

    Beta Virtual:

       2B3u    0.216333     3B1u    0.261569     3B2u    0.261569
       4Ag     0.301185     3B3u    0.326516     1B3g    0.490745
       5Ag     0.490745     1B2g    0.497790     1B1g    0.497790
       6Ag     0.500512     4B2u    0.802261     4B1u    0.802261
       4B3u    0.832522     2B3g    1.001533     7Ag     1.001533
       2B2g    1.021284     2B1g    1.021284     8Ag     1.022569
       9Ag     1.030194     5B3u    1.108355     5B1u    1.109355
       5B2u    1.109355     1Au     1.112383     6B3u    1.112383
       6B1u    1.117241     6B2u    1.117241    10Ag     2.217847
       3B1g    2.220231     3B2g    2.220231     3B3g    2.227158
      11Ag     2.227158     7B1u    2.644322     7B2u    2.644322
       7B3u    2.645868     8B1u    2.650850     8B2u    2.650850
       2Au     2.652131     8B3u    2.652131     9B3u    2.657757
       9B2u    2.657878     9B1u    2.657878    12Ag     4.415885
      13Ag     7.608298     4B2g    7.611958     4B1g    7.611958
      14Ag     7.623024     4B3g    7.623024

    Final Occupation by Irrep:
             Ag   B1g   B2g   B3g    Au   B1u   B2u   B3u
    DOCC [     3,    0,    0,    0,    0,    2,    2,    1 ]
    SOCC [     0,    0,    0,    0,    0,    0,    0,    1 ]

  Energy converged.

  @UHF Final Energy:  -397.54265206562076

   => Energetics <=

    Nuclear Repulsion Energy =              0.0000000000000000
    One-Electron Energy =                -554.5293751812677101
    Two-Electron Energy =                 156.9867231156469529
    Total Energy =                       -397.5426520656207572

  UHF NO Occupations:
  HONO-2 :    2B2u 1.9990894
  HONO-1 :    3 Ag 1.9949703
  HONO-0 :    2B3u 1.0000000
  LUNO+0 :    4 Ag 0.0050297
  LUNO+1 :    3B1u 0.0009106
  LUNO+2 :    3B2u 0.0009106
  LUNO+3 :    3B3u 0.0000022

Properties will be evaluated at   0.000000,   0.000000,   0.000000 Bohr

Properties computed using the SCF density matrix

  Nuclear Dipole Moment: (a.u.)
     X:     0.0000      Y:     0.0000      Z:     0.0000

  Electronic Dipole Moment: (a.u.)
     X:     0.0000      Y:     0.0000      Z:     0.0000

  Dipole Moment: (a.u.)
     X:     0.0000      Y:     0.0000      Z:     0.0000     Total:     0.0000

  Dipole Moment: (Debye)
     X:     0.0000      Y:     0.0000      Z:     0.0000     Total:     0.0000

*** tstop() called on cqc05 at Thu Aug 20 20:10:57 2020
Module time:
	user time   =       0.63 seconds =       0.01 minutes
	system time =       0.02 seconds =       0.00 minutes
	total time  =          1 seconds =       0.02 minutes
Total time:
	user time   =       0.63 seconds =       0.01 minutes
	system time =       0.02 seconds =       0.00 minutes
	total time  =          1 seconds =       0.02 minutes

*** tstart() called on cqc05
*** at Thu Aug 20 20:10:57 2020

	Wfn Parameters:
	--------------------
	Wavefunction         = CCSD
	Number of irreps     = 8
	Number of MOs        = 55
	Number of active MOs = 50
	AO-Basis             = NONE
	Semicanonical        = false
	Reference            = UHF
	Print Level          = 1

	IRREP	# MOs	# FZDC	# DOCC	# SOCC	# VIRT	# FZVR
	-----	-----	------	------	------	------	------
	 Ag	   14	    2	    1	    0	    11	    0
	 B1g	   4	    0	    0	    0	    4	    0
	 B2g	   4	    0	    0	    0	    4	    0
	 B3g	   4	    0	    0	    0	    4	    0
	 Au	   2	    0	    0	    0	    2	    0
	 B1u	   9	    1	    1	    0	    7	    0
	 B2u	   9	    1	    1	    0	    7	    0
	 B3u	   9	    1	    0	    1	    7	    0
	Transforming integrals...
	IWL integrals will be deleted.
	(OO|OO)...
	Presorting SO-basis two-electron integrals.
	Sorting File: SO Ints (nn|nn) nbuckets = 1
	Transforming the one-electron integrals and constructing Fock matrices
	Starting AA/AB first half-transformation.
	Sorting AA/AB half-transformed integrals.
	Starting BB first half-transformation.
	Sorting BB half-transformed integrals.
	First half integral transformation complete.
	Starting AA second half-transformation.
	Starting AB second half-transformation.
	Starting BB second half-transformation.
	Two-electron integral transformation complete.
	(OO|OV)...
	Starting AA second half-transformation.
	Starting AB second half-transformation.
	Starting BB second half-transformation.
	Two-electron integral transformation complete.
	(OO|VV)...
	Starting AA second half-transformation.
	Starting AB second half-transformation.
	Starting BB second half-transformation.
	Two-electron integral transformation complete.
	(OV|OO)...
	Starting AA/AB first half-transformation.
	Sorting AA/AB half-transformed integrals.
	Starting BB first half-transformation.
	Sorting BB half-transformed integrals.
	First half integral transformation complete.
	Starting AA second half-transformation.
	Starting AB second half-transformation.
	Starting BB second half-transformation.
	Two-electron integral transformation complete.
	(OV|OV)...
	Starting AA second half-transformation.
	Starting AB second half-transformation.
	Starting BB second half-transformation.
	Two-electron integral transformation complete.
	(OV|VV)...
	Starting AA second half-transformation.
	Starting AB second half-transformation.
	Starting BB second half-transformation.
	Two-electron integral transformation complete.
	(VV|OO)...
	Starting AA/AB first half-transformation.
	Sorting AA/AB half-transformed integrals.
	Starting BB first half-transformation.
	Sorting BB half-transformed integrals.
	First half integral transformation complete.
	Starting AA second half-transformation.
	Starting AB second half-transformation.
	Starting BB second half-transformation.
	Two-electron integral transformation complete.
	(VV|OV)...
	Starting AA second half-transformation.
	Starting AB second half-transformation.
	Starting BB second half-transformation.
	Two-electron integral transformation complete.
	(VV|VV)...
	Starting AA second half-transformation.
	Starting AB second half-transformation.
	Starting BB second half-transformation.
	Two-electron integral transformation complete.
	Frozen core energy     =   -387.55073540594429

	Size of irrep 0 of <AB|CD> integrals:      0.019 (MW) /      0.150 (MB)
	Size of irrep 1 of <AB|CD> integrals:      0.015 (MW) /      0.121 (MB)
	Size of irrep 2 of <AB|CD> integrals:      0.015 (MW) /      0.121 (MB)
	Size of irrep 3 of <AB|CD> integrals:      0.015 (MW) /      0.121 (MB)
	Size of irrep 4 of <AB|CD> integrals:      0.011 (MW) /      0.090 (MB)
	Size of irrep 5 of <AB|CD> integrals:      0.020 (MW) /      0.159 (MB)
	Size of irrep 6 of <AB|CD> integrals:      0.020 (MW) /      0.159 (MB)
	Size of irrep 7 of <AB|CD> integrals:      0.020 (MW) /      0.159 (MB)
	Total:                                     0.135 (MW) /      1.080 (MB)

	Size of irrep 0 of <ab|cd> integrals:      0.021 (MW) /      0.166 (MB)
	Size of irrep 1 of <ab|cd> integrals:      0.017 (MW) /      0.135 (MB)
	Size of irrep 2 of <ab|cd> integrals:      0.017 (MW) /      0.135 (MB)
	Size of irrep 3 of <ab|cd> integrals:      0.016 (MW) /      0.125 (MB)
	Size of irrep 4 of <ab|cd> integrals:      0.012 (MW) /      0.097 (MB)
	Size of irrep 5 of <ab|cd> integrals:      0.021 (MW) /      0.168 (MB)
	Size of irrep 6 of <ab|cd> integrals:      0.021 (MW) /      0.168 (MB)
	Size of irrep 7 of <ab|cd> integrals:      0.023 (MW) /      0.185 (MB)
	Total:                                     0.147 (MW) /      1.179 (MB)

	Size of irrep 0 of <Ab|Cd> integrals:      0.107 (MW) /      0.855 (MB)
	Size of irrep 1 of <Ab|Cd> integrals:      0.064 (MW) /      0.512 (MB)
	Size of irrep 2 of <Ab|Cd> integrals:      0.064 (MW) /      0.512 (MB)
	Size of irrep 3 of <Ab|Cd> integrals:      0.062 (MW) /      0.492 (MB)
	Size of irrep 4 of <Ab|Cd> integrals:      0.047 (MW) /      0.373 (MB)
	Size of irrep 5 of <Ab|Cd> integrals:      0.082 (MW) /      0.654 (MB)
	Size of irrep 6 of <Ab|Cd> integrals:      0.082 (MW) /      0.654 (MB)
	Size of irrep 7 of <Ab|Cd> integrals:      0.086 (MW) /      0.687 (MB)
	Total:                                     0.593 (MW) /      4.740 (MB)

	Size of irrep 0 of <IA|BC> integrals:      0.010 (MW) /      0.082 (MB)
	Size of irrep 1 of <IA|BC> integrals:      0.005 (MW) /      0.039 (MB)
	Size of irrep 2 of <IA|BC> integrals:      0.005 (MW) /      0.039 (MB)
	Size of irrep 3 of <IA|BC> integrals:      0.005 (MW) /      0.039 (MB)
	Size of irrep 4 of <IA|BC> integrals:      0.003 (MW) /      0.024 (MB)
	Size of irrep 5 of <IA|BC> integrals:      0.007 (MW) /      0.059 (MB)
	Size of irrep 6 of <IA|BC> integrals:      0.007 (MW) /      0.059 (MB)
	Size of irrep 7 of <IA|BC> integrals:      0.007 (MW) /      0.059 (MB)
	Total:                                     0.050 (MW) /      0.400 (MB)

	Size of irrep 0 of <ia|bc> integrals:      0.008 (MW) /      0.067 (MB)
	Size of irrep 1 of <ia|bc> integrals:      0.004 (MW) /      0.029 (MB)
	Size of irrep 2 of <ia|bc> integrals:      0.004 (MW) /      0.029 (MB)
	Size of irrep 3 of <ia|bc> integrals:      0.004 (MW) /      0.036 (MB)
	Size of irrep 4 of <ia|bc> integrals:      0.002 (MW) /      0.018 (MB)
	Size of irrep 5 of <ia|bc> integrals:      0.006 (MW) /      0.051 (MB)
	Size of irrep 6 of <ia|bc> integrals:      0.006 (MW) /      0.051 (MB)
	Size of irrep 7 of <ia|bc> integrals:      0.005 (MW) /      0.039 (MB)
	Total:                                     0.040 (MW) /      0.320 (MB)

	Size of irrep 0 of <Ia|Bc> integrals:      0.011 (MW) /      0.086 (MB)
	Size of irrep 1 of <Ia|Bc> integrals:      0.005 (MW) /      0.043 (MB)
	Size of irrep 2 of <Ia|Bc> integrals:      0.005 (MW) /      0.043 (MB)
	Size of irrep 3 of <Ia|Bc> integrals:      0.005 (MW) /      0.040 (MB)
	Size of irrep 4 of <Ia|Bc> integrals:      0.003 (MW) /      0.024 (MB)
	Size of irrep 5 of <Ia|Bc> integrals:      0.007 (MW) /      0.059 (MB)
	Size of irrep 6 of <Ia|Bc> integrals:      0.007 (MW) /      0.059 (MB)
	Size of irrep 7 of <Ia|Bc> integrals:      0.008 (MW) /      0.063 (MB)
	Total:                                     0.052 (MW) /      0.417 (MB)

	Size of irrep 0 of <iA|bC> integrals:      0.008 (MW) /      0.065 (MB)
	Size of irrep 1 of <iA|bC> integrals:      0.003 (MW) /      0.026 (MB)
	Size of irrep 2 of <iA|bC> integrals:      0.003 (MW) /      0.026 (MB)
	Size of irrep 3 of <iA|bC> integrals:      0.004 (MW) /      0.036 (MB)
	Size of irrep 4 of <iA|bC> integrals:      0.002 (MW) /      0.017 (MB)
	Size of irrep 5 of <iA|bC> integrals:      0.006 (MW) /      0.050 (MB)
	Size of irrep 6 of <iA|bC> integrals:      0.006 (MW) /      0.050 (MB)
	Size of irrep 7 of <iA|bC> integrals:      0.004 (MW) /      0.035 (MB)
	Total:                                     0.038 (MW) /      0.307 (MB)

	Size of irrep 0 of tIjAb amplitudes:       0.001 (MW) /      0.008 (MB)
	Size of irrep 1 of tIjAb amplitudes:       0.000 (MW) /      0.002 (MB)
	Size of irrep 2 of tIjAb amplitudes:       0.000 (MW) /      0.002 (MB)
	Size of irrep 3 of tIjAb amplitudes:       0.000 (MW) /      0.004 (MB)
	Size of irrep 4 of tIjAb amplitudes:       0.000 (MW) /      0.000 (MB)
	Size of irrep 5 of tIjAb amplitudes:       0.001 (MW) /      0.005 (MB)
	Size of irrep 6 of tIjAb amplitudes:       0.001 (MW) /      0.005 (MB)
	Size of irrep 7 of tIjAb amplitudes:       0.000 (MW) /      0.002 (MB)
	Total:                                     0.003 (MW) /      0.027 (MB)

	Nuclear Rep. energy          =      0.00000000000000
	SCF energy                   =   -397.54265206562076
	One-electron energy          =    -18.26255880634491
	Two-electron (AA) energy     =      2.15235280925274
	Two-electron (BB) energy     =      1.03418803322305
	Two-electron (AB) energy     =      5.08410130419298
	Two-electron energy          =      8.27064214666877
	Reference energy             =   -397.54265206562042

*** tstop() called on cqc05 at Thu Aug 20 20:10:57 2020
Module time:
	user time   =       0.13 seconds =       0.00 minutes
	system time =       0.11 seconds =       0.00 minutes
	total time  =          0 seconds =       0.00 minutes
Total time:
	user time   =       0.76 seconds =       0.01 minutes
	system time =       0.13 seconds =       0.00 minutes
	total time  =          1 seconds =       0.02 minutes

*** tstart() called on cqc05
*** at Thu Aug 20 20:10:57 2020

            **************************
            *                        *
            *        CCENERGY        *
            *                        *
            **************************

    Nuclear Rep. energy (wfn)     =    0.000000000000000
    SCF energy          (wfn)     = -397.542652065620757
    Reference energy    (file100) = -397.542652065620416

    Input parameters:
    -----------------
    Wave function   =     CCSD
    Reference wfn   =     UHF
    Brueckner       =     No
    Memory (Mbytes) =     250000.0
    Maxiter         =     50
    R_Convergence   =     1.0e-07
    E_Convergence   =     1.0e-06
    Restart         =     Yes
    DIIS            =     Yes
    AO Basis        =     NONE
    ABCD            =     NEW
    Cache Level     =     2
    Cache Type      =     LRU
    Print Level     =     1
    Num. of threads =     4
    # Amps to Print =     10
    Print MP2 Amps? =     No
    Analyze T2 Amps =     No
    Print Pair Ener =     No
    Local CC        =     No
    SCS-MP2         =     False
    SCSN-MP2        =     False
    SCS-CCSD        =     False

MP2 correlation energy -0.1572267720301877
                Solving CC Amplitude Equations
                ------------------------------
  Iter             Energy              RMS        T1Diag      D1Diag    New D1Diag    D2Diag
  ----     ---------------------    ---------   ----------  ----------  ----------   --------
     0        -0.157226772030188    0.000e+00    0.000000    0.000000    0.000000    0.000000
     1        -0.172459370282971    4.746e-02    0.009042    0.000000    0.000000    0.000000
     2        -0.177340518811411    1.647e-02    0.012223    0.000000    0.000000    0.000000
     3        -0.178008049745969    6.343e-03    0.013980    0.000000    0.000000    0.000000
     4        -0.178006985810525    2.516e-03    0.014765    0.000000    0.000000    0.000000
     5        -0.177997394742508    9.874e-04    0.014976    0.000000    0.000000    0.000000
     6        -0.177996283041137    3.648e-04    0.014989    0.000000    0.000000    0.000000
     7        -0.178000358462635    1.222e-04    0.014972    0.000000    0.000000    0.000000
     8        -0.177999950571823    4.611e-05    0.014965    0.000000    0.000000    0.000000
     9        -0.177999863123903    1.607e-05    0.014963    0.000000    0.000000    0.000000
    10        -0.178000013769235    4.715e-06    0.014963    0.000000    0.000000    0.000000
    11        -0.177999985788825    1.325e-06    0.014963    0.000000    0.000000    0.000000
    12        -0.177999981496262    3.630e-07    0.014963    0.000000    0.000000    0.000000
    13        -0.177999974673104    1.239e-07    0.014963    0.000000    0.000000    0.000000
    14        -0.177999974345846    4.916e-08    0.014963    0.000000    0.000000    0.000000
    14        -0.177999974345846    4.916e-08    0.014963    0.000000    0.000000    0.000000

    Iterations converged.

    CCSD corr. energy   =   -0.177999974345846
    PPL corr. energy    =    0.048745161056019
    OS PPL corr. energy =    0.040493997591825
    SS PPL corr. energy =    0.008251163464194
    Largest TIA Amplitudes:
              3  39        -0.0191039459
              1  25        -0.0069484402
              2  32        -0.0069484402
              0   3         0.0058067711
              0   5        -0.0054930769
              0   1        -0.0053512169
              1  26        -0.0038829921
              2  33        -0.0038829921
              3  40         0.0035410310
              1  30         0.0029073773

    Largest Tia Amplitudes:
              0   5        -0.0197204054
              0   2         0.0175683665
              1  25        -0.0068667514
              2  32        -0.0068667514
              0   0         0.0048079157
              1  27        -0.0043469851
              2  34        -0.0043469851
              1  26        -0.0042342277
              2  33        -0.0042342277
              1  30         0.0037730532

    Largest TIJAB Amplitudes:
      2   1  20   4        -0.0317846024
      2   1  19   2        -0.0295616533
      3   2  12   3         0.0262151577
      3   1  16   3         0.0262151577
      3   2  11   1        -0.0247947760
      3   1  15   1        -0.0247947760
      2   1  19   4        -0.0244193743
      2   1  20   2        -0.0244193743

      * MP2 total energy                      = -397.699878837650601
      * CCSD total energy                     = -397.720652039966239
*** Psi4 exiting successfully. Buy a developer a beer!
