                               Psi4 1.2a1.dev938

  ==> Input File <==

--------------------------------------------------------------------------
# Any line starting with the # character is a comment line
memory 250000 mb
molecule molecule{
-1 2
S          0.0000000000        0.0000000000        0.0000000000
}

set {
  reference uhf
  basis aug-cc-pv(q+d)z
  scf_type OUT_OF_CORE
  freeze_core true
}

energy('ccsd')
--------------------------------------------------------------------------

    Molecular point group: d2h
    Geometry (in Angstrom), charge = -1, multiplicity = 2:

       Center              X                  Y                   Z               Mass
    ------------   -----------------  -----------------  -----------------  -----------------
           S          0.000000000000     0.000000000000     0.000000000000    31.972070999000

  Charge       = -1
  Multiplicity = 2
  Basis Set: AUG-CC-PV(Q+D)Z
    Blend: AUG-CC-PV(Q+D)Z

    Orbital Energies (a.u.)
    -----------------------

    Alpha Occupied:

       1Ag   -91.679989     2Ag    -8.679802     1B2u   -6.374883
       1B3u   -6.357220     1B1u   -6.357220     3Ag    -0.634410
       2B2u   -0.173967     2B3u   -0.106148     2B1u   -0.106148

    Alpha Virtual:

       3B2u    0.225186     3B3u    0.233451     3B1u    0.233451
       4Ag     0.262317     5Ag     0.387343     1B3g    0.389982
       1B1g    0.389982     6Ag     0.399875     1B2g    0.399875
       4B2u    0.616961     4B3u    0.645296     4B1u    0.645296
       7Ag     0.754405     8Ag     0.764505     2B1g    0.767265
       2B3g    0.767265     5B2u    0.767959     5B1u    0.769962
       5B3u    0.769962     6B2u    0.776028     1Au     0.776028
       6B1u    0.787179     6B3u    0.787179     2B2g    0.798647
       9Ag     0.798647    10Ag     1.565841     3B1g    1.575289
       3B3g    1.575289    11Ag     1.607866     3B2g    1.607866
      12Ag     1.716494     4B1g    1.718509     4B3g    1.718509
      13Ag     1.724622     4B2g    1.724622     5B1g    1.735042
       5B3g    1.735042    14Ag     1.750266     5B2g    1.750266
       7B2u    1.768497     7B3u    1.776885     7B1u    1.776885
       2Au     1.792680     8B2u    1.792680     9B2u    1.799231
       8B3u    1.817657     8B1u    1.817657     9B3u    1.838724
       9B1u    1.838724    15Ag     2.424058    16Ag     3.340619
       6B1g    3.348968     6B3g    3.348968    17Ag     3.377561
       6B2g    3.377561    10B2u    3.955673    10B3u    3.961091
      10B1u    3.961091    11B2u    3.977541     3Au     3.977541
      11B3u    4.005742    11B1u    4.005742    18Ag     4.111029
       7B1g    4.114231     7B3g    4.114231    19Ag     4.123912
       7B2g    4.123912     8B3g    4.140316     8B1g    4.140316
      20Ag     4.163902     8B2g    4.163902    12B2u    5.897597
      12B3u    5.937205    12B1u    5.937205    21Ag     9.560264
       9B1g    9.566627     9B3g    9.566627     9B2g    9.586137
      22Ag     9.586137    23Ag    17.469820

    Beta Occupied:

       1Ag   -91.671778     2Ag    -8.670986     1B1u   -6.351901
       1B3u   -6.351901     1B2u   -6.338184     3Ag    -0.529926
       2B1u   -0.085497     2B3u   -0.085497

    Beta Virtual:

       2B2u    0.204844     3B1u    0.234770     3B3u    0.234770
       4Ag     0.266231     3B2u    0.305057     5Ag     0.398300
       1B2g    0.398300     1B1g    0.399688     1B3g    0.399688
       6Ag     0.400275     4B1u    0.651076     4B3u    0.651076
       4B2u    0.681233     5B2u    0.777105     7Ag     0.777694
       5B3u    0.777908     5B1u    0.777908     6B2u    0.780834
       1Au     0.780834     6B1u    0.785887     6B3u    0.785887
       2B2g    0.802013     8Ag     0.802013     2B3g    0.821581
       2B1g    0.821581     9Ag     0.829325    10Ag     1.612071
       3B2g    1.612071     3B3g    1.613713     3B1g    1.613713
      11Ag     1.614428    12Ag     1.730368     4B1g    1.731518
       4B3g    1.731518    13Ag     1.734990     4B2g    1.734990
       5B1g    1.740868     5B3g    1.740868    14Ag     1.749285
       5B2g    1.749285     7B2u    1.807898     7B1u    1.809184
       7B3u    1.809184     2Au     1.813450     8B2u    1.813450
       8B3u    1.818448     8B1u    1.818448     9B1u    1.846624
       9B3u    1.846624     9B2u    1.857324    15Ag     2.444728
      16Ag     3.361344     6B3g    3.365896     6B1g    3.365896
      17Ag     3.379783     6B2g    3.379783    10B2u    3.990570
      10B1u    3.992473    10B3u    3.992473    11B2u    3.998182
       3Au     3.998182    11B3u    4.007663    11B1u    4.007663
      18Ag     4.139106     7B3g    4.140668     7B1g    4.140668
      19Ag     4.145369     7B2g    4.145369     8B3g    4.153252
       8B1g    4.153252    20Ag     4.164382     8B2g    4.164382
      12B2u    5.935188    12B1u    5.943082    12B3u    5.943082
      21Ag     9.573744     9B3g    9.577271     9B1g    9.577271
       9B2g    9.587995    22Ag     9.587995    23Ag    17.480368

    Final Occupation by Irrep:
             Ag   B1g   B2g   B3g    Au   B1u   B2u   B3u
    DOCC [     3,    0,    0,    0,    0,    2,    1,    2 ]
    SOCC [     0,    0,    0,    0,    0,    0,    1,    0 ]

  Energy converged.

  @UHF Final Energy:  -397.54525300139784

   => Energetics <=

    Nuclear Repulsion Energy =              0.0000000000000000
    One-Electron Energy =                -554.5350458338882618
    Two-Electron Energy =                 156.9897928324903944
    Total Energy =                       -397.5452530013978958

  UHF NO Occupations:
  HONO-2 :    2B3u 1.9990382
  HONO-1 :    3 Ag 1.9949334
  HONO-0 :    2B2u 1.0000000
  LUNO+0 :    4 Ag 0.0050666
  LUNO+1 :    3B3u 0.0009618
  LUNO+2 :    3B1u 0.0009618
  LUNO+3 :    3B2u 0.0000027

Properties will be evaluated at   0.000000,   0.000000,   0.000000 Bohr

Properties computed using the SCF density matrix

  Nuclear Dipole Moment: (a.u.)
     X:     0.0000      Y:     0.0000      Z:     0.0000

  Electronic Dipole Moment: (a.u.)
     X:     0.0000      Y:     0.0000      Z:     0.0000

  Dipole Moment: (a.u.)
     X:     0.0000      Y:     0.0000      Z:     0.0000     Total:     0.0000

  Dipole Moment: (Debye)
     X:     0.0000      Y:     0.0000      Z:     0.0000     Total:     0.0000

*** tstop() called on cqc05 at Thu Aug 20 22:41:17 2020
Module time:
	user time   =       2.10 seconds =       0.04 minutes
	system time =       0.06 seconds =       0.00 minutes
	total time  =          2 seconds =       0.03 minutes
Total time:
	user time   =       2.10 seconds =       0.04 minutes
	system time =       0.06 seconds =       0.00 minutes
	total time  =          2 seconds =       0.03 minutes

*** tstart() called on cqc05
*** at Thu Aug 20 22:41:17 2020

	Wfn Parameters:
	--------------------
	Wavefunction         = CCSD
	Number of irreps     = 8
	Number of MOs        = 89
	Number of active MOs = 84
	AO-Basis             = NONE
	Semicanonical        = false
	Reference            = UHF
	Print Level          = 1

	IRREP	# MOs	# FZDC	# DOCC	# SOCC	# VIRT	# FZVR
	-----	-----	------	------	------	------	------
	 Ag	   23	    2	    1	    0	    20	    0
	 B1g	   9	    0	    0	    0	    9	    0
	 B2g	   9	    0	    0	    0	    9	    0
	 B3g	   9	    0	    0	    0	    9	    0
	 Au	   3	    0	    0	    0	    3	    0
	 B1u	   12	    1	    1	    0	    10	    0
	 B2u	   12	    1	    0	    1	    10	    0
	 B3u	   12	    1	    1	    0	    10	    0
	Transforming integrals...
	IWL integrals will be deleted.
	(OO|OO)...
	Presorting SO-basis two-electron integrals.
	Sorting File: SO Ints (nn|nn) nbuckets = 1
	Transforming the one-electron integrals and constructing Fock matrices
	Starting AA/AB first half-transformation.
	Sorting AA/AB half-transformed integrals.
	Starting BB first half-transformation.
	Sorting BB half-transformed integrals.
	First half integral transformation complete.
	Starting AA second half-transformation.
	Starting AB second half-transformation.
	Starting BB second half-transformation.
	Two-electron integral transformation complete.
	(OO|OV)...
	Starting AA second half-transformation.
	Starting AB second half-transformation.
	Starting BB second half-transformation.
	Two-electron integral transformation complete.
	(OO|VV)...
	Starting AA second half-transformation.
	Starting AB second half-transformation.
	Starting BB second half-transformation.
	Two-electron integral transformation complete.
	(OV|OO)...
	Starting AA/AB first half-transformation.
	Sorting AA/AB half-transformed integrals.
	Starting BB first half-transformation.
	Sorting BB half-transformed integrals.
	First half integral transformation complete.
	Starting AA second half-transformation.
	Starting AB second half-transformation.
	Starting BB second half-transformation.
	Two-electron integral transformation complete.
	(OV|OV)...
	Starting AA second half-transformation.
	Starting AB second half-transformation.
	Starting BB second half-transformation.
	Two-electron integral transformation complete.
	(OV|VV)...
	Starting AA second half-transformation.
	Starting AB second half-transformation.
	Starting BB second half-transformation.
	Two-electron integral transformation complete.
	(VV|OO)...
	Starting AA/AB first half-transformation.
	Sorting AA/AB half-transformed integrals.
	Starting BB first half-transformation.
	Sorting BB half-transformed integrals.
	First half integral transformation complete.
	Starting AA second half-transformation.
	Starting AB second half-transformation.
	Starting BB second half-transformation.
	Two-electron integral transformation complete.
	(VV|OV)...
	Starting AA second half-transformation.
	Starting AB second half-transformation.
	Starting BB second half-transformation.
	Two-electron integral transformation complete.
	(VV|VV)...
	Starting AA second half-transformation.
	Starting AB second half-transformation.
	Starting BB second half-transformation.
	Two-electron integral transformation complete.
	Frozen core energy     =   -387.55302248244095

	Size of irrep 0 of <AB|CD> integrals:      0.190 (MW) /      1.521 (MB)
	Size of irrep 1 of <AB|CD> integrals:      0.153 (MW) /      1.223 (MB)
	Size of irrep 2 of <AB|CD> integrals:      0.153 (MW) /      1.223 (MB)
	Size of irrep 3 of <AB|CD> integrals:      0.153 (MW) /      1.223 (MB)
	Size of irrep 4 of <AB|CD> integrals:      0.109 (MW) /      0.871 (MB)
	Size of irrep 5 of <AB|CD> integrals:      0.166 (MW) /      1.325 (MB)
	Size of irrep 6 of <AB|CD> integrals:      0.166 (MW) /      1.325 (MB)
	Size of irrep 7 of <AB|CD> integrals:      0.166 (MW) /      1.325 (MB)
	Total:                                     1.255 (MW) /     10.037 (MB)

	Size of irrep 0 of <ab|cd> integrals:      0.199 (MW) /      1.591 (MB)
	Size of irrep 1 of <ab|cd> integrals:      0.161 (MW) /      1.286 (MB)
	Size of irrep 2 of <ab|cd> integrals:      0.155 (MW) /      1.242 (MB)
	Size of irrep 3 of <ab|cd> integrals:      0.161 (MW) /      1.286 (MB)
	Size of irrep 4 of <ab|cd> integrals:      0.115 (MW) /      0.919 (MB)
	Size of irrep 5 of <ab|cd> integrals:      0.173 (MW) /      1.384 (MB)
	Size of irrep 6 of <ab|cd> integrals:      0.182 (MW) /      1.459 (MB)
	Size of irrep 7 of <ab|cd> integrals:      0.173 (MW) /      1.384 (MB)
	Total:                                     1.319 (MW) /     10.553 (MB)

	Size of irrep 0 of <Ab|Cd> integrals:      0.925 (MW) /      7.404 (MB)
	Size of irrep 1 of <Ab|Cd> integrals:      0.627 (MW) /      5.018 (MB)
	Size of irrep 2 of <Ab|Cd> integrals:      0.616 (MW) /      4.930 (MB)
	Size of irrep 3 of <Ab|Cd> integrals:      0.627 (MW) /      5.018 (MB)
	Size of irrep 4 of <Ab|Cd> integrals:      0.448 (MW) /      3.580 (MB)
	Size of irrep 5 of <Ab|Cd> integrals:      0.677 (MW) /      5.419 (MB)
	Size of irrep 6 of <Ab|Cd> integrals:      0.696 (MW) /      5.564 (MB)
	Size of irrep 7 of <Ab|Cd> integrals:      0.677 (MW) /      5.419 (MB)
	Total:                                     5.294 (MW) /     42.352 (MB)

	Size of irrep 0 of <IA|BC> integrals:      0.048 (MW) /      0.381 (MB)
	Size of irrep 1 of <IA|BC> integrals:      0.025 (MW) /      0.200 (MB)
	Size of irrep 2 of <IA|BC> integrals:      0.025 (MW) /      0.200 (MB)
	Size of irrep 3 of <IA|BC> integrals:      0.025 (MW) /      0.200 (MB)
	Size of irrep 4 of <IA|BC> integrals:      0.020 (MW) /      0.158 (MB)
	Size of irrep 5 of <IA|BC> integrals:      0.039 (MW) /      0.313 (MB)
	Size of irrep 6 of <IA|BC> integrals:      0.039 (MW) /      0.313 (MB)
	Size of irrep 7 of <IA|BC> integrals:      0.039 (MW) /      0.313 (MB)
	Total:                                     0.260 (MW) /      2.078 (MB)

	Size of irrep 0 of <ia|bc> integrals:      0.039 (MW) /      0.311 (MB)
	Size of irrep 1 of <ia|bc> integrals:      0.018 (MW) /      0.148 (MB)
	Size of irrep 2 of <ia|bc> integrals:      0.023 (MW) /      0.183 (MB)
	Size of irrep 3 of <ia|bc> integrals:      0.018 (MW) /      0.148 (MB)
	Size of irrep 4 of <ia|bc> integrals:      0.014 (MW) /      0.114 (MB)
	Size of irrep 5 of <ia|bc> integrals:      0.032 (MW) /      0.260 (MB)
	Size of irrep 6 of <ia|bc> integrals:      0.025 (MW) /      0.198 (MB)
	Size of irrep 7 of <ia|bc> integrals:      0.032 (MW) /      0.260 (MB)
	Total:                                     0.203 (MW) /      1.621 (MB)

	Size of irrep 0 of <Ia|Bc> integrals:      0.049 (MW) /      0.392 (MB)
	Size of irrep 1 of <Ia|Bc> integrals:      0.026 (MW) /      0.209 (MB)
	Size of irrep 2 of <Ia|Bc> integrals:      0.025 (MW) /      0.201 (MB)
	Size of irrep 3 of <Ia|Bc> integrals:      0.026 (MW) /      0.209 (MB)
	Size of irrep 4 of <Ia|Bc> integrals:      0.020 (MW) /      0.161 (MB)
	Size of irrep 5 of <Ia|Bc> integrals:      0.040 (MW) /      0.316 (MB)
	Size of irrep 6 of <Ia|Bc> integrals:      0.041 (MW) /      0.327 (MB)
	Size of irrep 7 of <Ia|Bc> integrals:      0.040 (MW) /      0.316 (MB)
	Total:                                     0.266 (MW) /      2.131 (MB)

	Size of irrep 0 of <iA|bC> integrals:      0.038 (MW) /      0.308 (MB)
	Size of irrep 1 of <iA|bC> integrals:      0.017 (MW) /      0.139 (MB)
	Size of irrep 2 of <iA|bC> integrals:      0.023 (MW) /      0.182 (MB)
	Size of irrep 3 of <iA|bC> integrals:      0.017 (MW) /      0.139 (MB)
	Size of irrep 4 of <iA|bC> integrals:      0.014 (MW) /      0.112 (MB)
	Size of irrep 5 of <iA|bC> integrals:      0.032 (MW) /      0.257 (MB)
	Size of irrep 6 of <iA|bC> integrals:      0.023 (MW) /      0.187 (MB)
	Size of irrep 7 of <iA|bC> integrals:      0.032 (MW) /      0.257 (MB)
	Total:                                     0.198 (MW) /      1.582 (MB)

	Size of irrep 0 of tIjAb amplitudes:       0.003 (MW) /      0.023 (MB)
	Size of irrep 1 of tIjAb amplitudes:       0.001 (MW) /      0.006 (MB)
	Size of irrep 2 of tIjAb amplitudes:       0.002 (MW) /      0.013 (MB)
	Size of irrep 3 of tIjAb amplitudes:       0.001 (MW) /      0.006 (MB)
	Size of irrep 4 of tIjAb amplitudes:       0.000 (MW) /      0.000 (MB)
	Size of irrep 5 of tIjAb amplitudes:       0.002 (MW) /      0.013 (MB)
	Size of irrep 6 of tIjAb amplitudes:       0.001 (MW) /      0.007 (MB)
	Size of irrep 7 of tIjAb amplitudes:       0.002 (MW) /      0.013 (MB)
	Total:                                     0.010 (MW) /      0.081 (MB)

	Nuclear Rep. energy          =      0.00000000000000
	SCF energy                   =   -397.54525300139784
	One-electron energy          =    -18.26286739057711
	Two-electron (AA) energy     =      2.15257439668259
	Two-electron (BB) energy     =      1.03406410754010
	Two-electron (AB) energy     =      5.08399836739731
	Two-electron energy          =      8.27063687162000
	Reference energy             =   -397.54525300139807

*** tstop() called on cqc05 at Thu Aug 20 22:41:18 2020
Module time:
	user time   =       0.59 seconds =       0.01 minutes
	system time =       0.37 seconds =       0.01 minutes
	total time  =          1 seconds =       0.02 minutes
Total time:
	user time   =       2.69 seconds =       0.04 minutes
	system time =       0.43 seconds =       0.01 minutes
	total time  =          3 seconds =       0.05 minutes

*** tstart() called on cqc05
*** at Thu Aug 20 22:41:18 2020

            **************************
            *                        *
            *        CCENERGY        *
            *                        *
            **************************

    Nuclear Rep. energy (wfn)     =    0.000000000000000
    SCF energy          (wfn)     = -397.545253001397839
    Reference energy    (file100) = -397.545253001398066

    Input parameters:
    -----------------
    Wave function   =     CCSD
    Reference wfn   =     UHF
    Brueckner       =     No
    Memory (Mbytes) =     250000.0
    Maxiter         =     50
    R_Convergence   =     1.0e-07
    E_Convergence   =     1.0e-06
    Restart         =     Yes
    DIIS            =     Yes
    AO Basis        =     NONE
    ABCD            =     NEW
    Cache Level     =     2
    Cache Type      =     LRU
    Print Level     =     1
    Num. of threads =     4
    # Amps to Print =     10
    Print MP2 Amps? =     No
    Analyze T2 Amps =     No
    Print Pair Ener =     No
    Local CC        =     No
    SCS-MP2         =     False
    SCSN-MP2        =     False
    SCS-CCSD        =     False

MP2 correlation energy -0.1702377683984353
                Solving CC Amplitude Equations
                ------------------------------
  Iter             Energy              RMS        T1Diag      D1Diag    New D1Diag    D2Diag
  ----     ---------------------    ---------   ----------  ----------  ----------   --------
     0        -0.170237768398437    0.000e+00    0.000000    0.000000    0.000000    0.000000
     1        -0.183585788557157    4.590e-02    0.008762    0.000000    0.000000    0.000000
     2        -0.188320010600732    1.612e-02    0.011748    0.000000    0.000000    0.000000
     3        -0.189013294822529    6.389e-03    0.013335    0.000000    0.000000    0.000000
     4        -0.189022869549482    2.557e-03    0.014124    0.000000    0.000000    0.000000
     5        -0.189018122885986    9.995e-04    0.014329    0.000000    0.000000    0.000000
     6        -0.189012847016028    4.153e-04    0.014371    0.000000    0.000000    0.000000
     7        -0.189016964364838    1.322e-04    0.014360    0.000000    0.000000    0.000000
     8        -0.189017112187813    4.890e-05    0.014354    0.000000    0.000000    0.000000
     9        -0.189016703420201    2.012e-05    0.014352    0.000000    0.000000    0.000000
    10        -0.189016826276987    7.343e-06    0.014351    0.000000    0.000000    0.000000
    11        -0.189016873028244    2.187e-06    0.014351    0.000000    0.000000    0.000000
    12        -0.189016915927634    6.080e-07    0.014351    0.000000    0.000000    0.000000
    13        -0.189016918566075    2.309e-07    0.014351    0.000000    0.000000    0.000000
    14        -0.189016916712674    8.678e-08    0.014351    0.000000    0.000000    0.000000
    14        -0.189016916712674    8.678e-08    0.014351    0.000000    0.000000    0.000000

    Iterations converged.

    CCSD corr. energy   =   -0.189016916712674
    PPL corr. energy    =    0.055141199852979
    OS PPL corr. energy =    0.046443474138136
    SS PPL corr. energy =    0.008697725714843
    Largest TIA Amplitudes:
              2  60        -0.0167472346
              0   3        -0.0088360198
              2  61         0.0056426347
              1  50         0.0041695586
              3  70         0.0041692109
              0   1        -0.0040816819
              3  76        -0.0039218597
              1  56        -0.0039218286
              3  71         0.0038650667
              1  51         0.0038648745

      * MP2 total energy                      = -397.715490769796475
      * CCSD total energy                     = -397.734269918110726
*** Psi4 exiting successfully. Buy a developer a beer!
