                               Psi4 1.2a1.dev939

  ==> Input File <==

--------------------------------------------------------------------------
# Any line starting with the # character is a comment line
memory 250000 mb
molecule molecule{
-1 2
S          0.0000000000        0.0000000000        0.0000000000
}

set {
  reference uhf
  basis aug-cc-pv(6+d)z
  scf_type OUT_OF_CORE
  freeze_core true
}

energy('ccsd')
--------------------------------------------------------------------------

    Molecular point group: d2h
    Geometry (in Angstrom), charge = -1, multiplicity = 2:

       Center              X                  Y                   Z               Mass
    ------------   -----------------  -----------------  -----------------  -----------------
           S          0.000000000000     0.000000000000     0.000000000000    31.972070999000

  Charge       = -1
  Multiplicity = 2
  Basis Set: AUG-CC-PV(6+D)Z
    Blend: AUG-CC-PV(6+D)Z

    Orbital Energies (a.u.)
    -----------------------

    Alpha Occupied:

       1Ag   -91.680477     2Ag    -8.679736     1B3u   -6.375083
       1B1u   -6.357461     1B2u   -6.357461     3Ag    -0.634468
       2B3u   -0.173996     2B1u   -0.106233     2B2u   -0.106233

    Alpha Virtual:

       3B3u    0.190220     3B2u    0.195627     3B1u    0.195627
       4Ag     0.236511     5Ag     0.346179     1B1g    0.348182
       1B2g    0.348182     6Ag     0.355673     1B3g    0.355673
       4B3u    0.457164     4B1u    0.476628     4B2u    0.476628
       7Ag     0.607184     5B3u    0.620243     5B2u    0.621676
       5B1u    0.621676     6B3u    0.626061     1Au     0.626061
       6B2u    0.633937     6B1u    0.633937     8Ag     0.679865
       2B2g    0.687235     2B1g    0.687235     2B3g    0.714814
       9Ag     0.714814    10Ag     1.074108     3B1g    1.075285
       3B2g    1.075285    11Ag     1.078832     3B3g    1.078832
       4B1g    1.084817     4B2g    1.084817     4B3g    1.093483
      12Ag     1.093483     7B3u    1.110958     7B1u    1.145740
       7B2u    1.145740    13Ag     1.302083     5B2g    1.311125
       5B1g    1.311125     5B3g    1.342517    14Ag     1.342517
       8B3u    1.366043     8B1u    1.369600     8B2u    1.369600
       2Au     1.380441     9B3u    1.380441     9B1u    1.399696
       9B2u    1.399696    15Ag     1.634119    10B3u    2.193965
      10B2u    2.195164    10B1u    2.195164    11B3u    2.198784
       3Au     2.198784    11B2u    2.204889    11B1u    2.204889
      12B3u    2.213596     4Au     2.213596    12B2u    2.225087
      12B1u    2.225087    16Ag     2.348450     6B2g    2.350869
       6B1g    2.350869    17Ag     2.358126     6B3g    2.358126
       7B1g    2.370241     7B2g    2.370241     7B3g    2.387350
      18Ag     2.387350    19Ag     2.661061     8B2g    2.669554
       8B1g    2.669554    13B3u    2.697398     8B3g    2.698172
      20Ag     2.698172    13B1u    2.703445    13B2u    2.703445
      14B3u    2.719732     5Au     2.719732    14B1u    2.746624
      14B2u    2.746624    15B3u    2.763530    15B1u    2.805478
      15B2u    2.805478    21Ag     4.366862     9B2g    4.368066
       9B1g    4.368066    22Ag     4.371687     9B3g    4.371687
      10B2g    4.377754    10B1g    4.377754    23Ag     4.382690
      10B3g    4.386317    24Ag     4.386317    11B2g    4.397451
      11B1g    4.397451    25Ag     4.411257    11B3g    4.411257
      26Ag     4.614381    12B2g    4.617562    12B1g    4.617562
      12B3g    4.627126    27Ag     4.627126    13B2g    4.643140
      13B1g    4.643140    16B3u    4.664752    13B3g    4.665730
      28Ag     4.665730    16B1u    4.666645    16B2u    4.666645
      17B3u    4.672352     6Au     4.672352    17B2u    4.681952
      17B1u    4.681952    18B3u    4.695589     7Au     4.695589
      18B2u    4.713476    18B1u    4.713476    29Ag     5.381141
      14B2g    5.389449    14B1g    5.389449    19B3u    5.392236
      19B1u    5.397316    19B2u    5.397316     8Au     5.412728
      20B3u    5.412728    30Ag     5.417501    14B3g    5.417501
      20B1u    5.439072    20B2u    5.439072    21B3u    7.295144
      21B1u    7.331132    21B2u    7.331132    31Ag     8.947720
      15B2g    8.950681    15B1g    8.950681    15B3g    8.959598
      32Ag     8.959598    16B2g    8.974569    16B1g    8.974569
      16B3g    8.995758    33Ag     8.995758    34Ag     9.171630
      17B2g    9.173112    17B1g    9.173112    35Ag     9.177573
      17B3g    9.177573    18B2g    9.185059    18B1g    9.185059
      18B3g    9.195650    36Ag     9.195650    19B1g    9.209466
      19B2g    9.209466    37Ag     9.226679    19B3g    9.226679
      22B3u    9.565473    22B1u    9.567548    22B2u    9.567548
      23B3u    9.573795     9Au     9.573795    23B2u    9.584282
      23B1u    9.584282    24B3u    9.599127    10Au     9.599127
      24B2u    9.618498    24B1u    9.618498    38Ag    10.947665
      20B2g   10.955313    20B1g   10.955313    39Ag    10.978525
      20B3g   10.978525    25B3u   11.049839    25B1u   11.053649
      25B2u   11.053649    11Au    11.065200    26B3u   11.065200
      26B2u   11.084896    26B1u   11.084896    40Ag    12.631255
      27B3u   29.770946    27B1u   29.790496    27B2u   29.790496
      41Ag    30.972735    21B2g   30.977109    21B1g   30.977109
      42Ag    30.990461    21B3g   30.990461    43Ag   243.305428

    Beta Occupied:

       1Ag   -91.671627     2Ag    -8.671071     1B2u   -6.352034
       1B1u   -6.352034     1B3u   -6.337521     3Ag    -0.529906
       2B2u   -0.085520     2B1u   -0.085520

    Beta Virtual:

       2B3u    0.181966     3B2u    0.196368     3B1u    0.196368
       4Ag     0.239106     3B3u    0.278633     5Ag     0.353935
       1B2g    0.353956     1B1g    0.353956     6Ag     0.354262
       1B3g    0.354262     4B2u    0.480270     4B1u    0.480270
       4B3u    0.511091     7Ag     0.620534     5B3u    0.624817
       5B1u    0.625622     5B2u    0.625622     6B3u    0.628287
       1Au     0.628287     6B2u    0.632838     6B1u    0.632838
       2B3g    0.716926     8Ag     0.716926     2B1g    0.733890
       2B2g    0.733890     9Ag     0.740419    10Ag     1.078456
       3B2g    1.079336     3B1g    1.079336    11Ag     1.081986
       3B3g    1.081986     4B1g    1.086405     4B2g    1.086405
       4B3g    1.092534    12Ag     1.092534     7B2u    1.152372
       7B1u    1.152372     7B3u    1.167103     5B3g    1.346886
      13Ag     1.346886     5B1g    1.353538     5B2g    1.353538
      14Ag     1.356173     8B3u    1.389913     8B2u    1.390975
       8B1u    1.390975     2Au     1.394219     9B3u    1.394219
       9B1u    1.399561     9B2u    1.399561    15Ag     1.652761
      10B3u    2.201173    10B2u    2.202081    10B1u    2.202081
      11B3u    2.204810     3Au     2.204810    11B2u    2.209382
      11B1u    2.209382    12B3u    2.215830     4Au     2.215830
      12B2u    2.224201    12B1u    2.224201    16Ag     2.365148
       6B1g    2.366530     6B2g    2.366530    17Ag     2.370658
       6B3g    2.370658     7B1g    2.377485     7B2g    2.377485
       7B3g    2.386927    18Ag     2.386927    19Ag     2.684611
       8B1g    2.688548     8B2g    2.688548     8B3g    2.700417
      20Ag     2.700417    13B3u    2.733763    13B2u    2.735542
      13B1u    2.735542     5Au     2.740661    14B3u    2.740661
      14B1u    2.748309    14B2u    2.748309    15B3u    2.810574
      15B2u    2.812398    15B1u    2.812398    21Ag     4.377138
       9B2g    4.378048     9B1g    4.378048    22Ag     4.380782
       9B3g    4.380782    10B2g    4.385360    10B1g    4.385360
      23Ag     4.391812    10B3g    4.391812    24Ag     4.398217
      11B2g    4.400182    11B1g    4.400182    25Ag     4.410528
      11B3g    4.410528    26Ag     4.638285    12B1g    4.640025
      12B2g    4.640025    12B3g    4.645250    27Ag     4.645250
      13B2g    4.653975    13B1g    4.653975    13B3g    4.666224
      28Ag     4.666224    16B3u    4.680746    16B1u    4.682022
      16B2u    4.682022    17B3u    4.685858     6Au     4.685858
      17B2u    4.692288    17B1u    4.692288    18B3u    4.701365
       7Au     4.701365    18B2u    4.713163    18B1u    4.713163
      29Ag     5.397229    14B2g    5.402521    14B1g    5.402521
      19B3u    5.416923    30Ag     5.419389    14B3g    5.419389
      19B2u    5.419514    19B1u    5.419514     8Au     5.427347
      20B3u    5.427347    20B1u    5.440587    20B2u    5.440587
      21B3u    7.327091    21B2u    7.336177    21B1u    7.336177
      31Ag     8.965188    15B2g    8.967106    15B1g    8.967106
      15B3g    8.972884    32Ag     8.972884    16B2g    8.982588
      16B1g    8.982588    16B3g    8.996326    33Ag     8.996326
      34Ag     9.185930    17B2g    9.187027    17B1g    9.187027
      35Ag     9.190328    17B3g    9.190328    18B2g    9.195860
      18B1g    9.195860    36Ag     9.203673    18B3g    9.203673
      19B1g    9.213836    19B2g    9.213836    37Ag     9.226442
      19B3g    9.226442    22B3u    9.582443    22B1u    9.583863
      22B2u    9.583863    23B3u    9.588136     9Au     9.588136
      23B2u    9.595305    23B1u    9.595305    24B3u    9.605441
      10Au     9.605441    24B2u    9.618643    24B1u    9.618643
      38Ag    10.961634    20B2g   10.966310    20B1g   10.966310
      39Ag    10.980469    20B3g   10.980469    25B3u   11.058868
      25B1u   11.061756    25B2u   11.061756    11Au    11.070501
      26B3u   11.070501    26B2u   11.085352    26B1u   11.085352
      40Ag    12.640326    27B3u   29.793430    27B2u   29.794208
      27B1u   29.794208    41Ag    30.988335    21B1g   30.989522
      21B2g   30.989522    42Ag    30.993247    21B3g   30.993247
      43Ag   243.308697

    Final Occupation by Irrep:
             Ag   B1g   B2g   B3g    Au   B1u   B2u   B3u
    DOCC [     3,    0,    0,    0,    0,    2,    2,    1 ]
    SOCC [     0,    0,    0,    0,    0,    0,    0,    1 ]

  Energy converged.

  @UHF Final Energy:  -397.54577564010094

   => Energetics <=

    Nuclear Repulsion Energy =              0.0000000000000000
    One-Electron Energy =                -554.5351720610869961
    Two-Electron Energy =                 156.9893964209860542
    Total Energy =                       -397.5457756401009419

  UHF NO Occupations:
  HONO-2 :    2B1u 1.9990140
  HONO-1 :    3 Ag 1.9949147
  HONO-0 :    2B3u 1.0000000
  LUNO+0 :    4 Ag 0.0050853
  LUNO+1 :    3B1u 0.0009860
  LUNO+2 :    3B2u 0.0009860
  LUNO+3 :    3B3u 0.0000037

Properties will be evaluated at   0.000000,   0.000000,   0.000000 Bohr

Properties computed using the SCF density matrix

  Nuclear Dipole Moment: (a.u.)
     X:     0.0000      Y:     0.0000      Z:     0.0000

  Electronic Dipole Moment: (a.u.)
     X:     0.0000      Y:     0.0000      Z:     0.0000

  Dipole Moment: (a.u.)
     X:     0.0000      Y:     0.0000      Z:     0.0000     Total:     0.0000

  Dipole Moment: (Debye)
     X:     0.0000      Y:     0.0000      Z:     0.0000     Total:     0.0000

*** tstop() called on n412-071.vsc4.prov at Mon Nov  2 11:28:46 2020
Module time:
	user time   =     319.35 seconds =       5.32 minutes
	system time =       7.38 seconds =       0.12 minutes
	total time  =         95 seconds =       1.58 minutes
Total time:
	user time   =     319.35 seconds =       5.32 minutes
	system time =       7.38 seconds =       0.12 minutes
	total time  =         95 seconds =       1.58 minutes

*** tstart() called on n412-071.vsc4.prov
*** at Mon Nov  2 11:28:46 2020

	Wfn Parameters:
	--------------------
	Wavefunction         = CCSD
	Number of irreps     = 8
	Number of MOs        = 198
	Number of active MOs = 193
	AO-Basis             = NONE
	Semicanonical        = false
	Reference            = UHF
	Print Level          = 1

	IRREP	# MOs	# FZDC	# DOCC	# SOCC	# VIRT	# FZVR
	-----	-----	------	------	------	------	------
	 Ag	   43	    2	    1	    0	    40	    0
	 B1g	   21	    0	    0	    0	    21	    0
	 B2g	   21	    0	    0	    0	    21	    0
	 B3g	   21	    0	    0	    0	    21	    0
	 Au	   11	    0	    0	    0	    11	    0
	 B1u	   27	    1	    1	    0	    25	    0
	 B2u	   27	    1	    1	    0	    25	    0
	 B3u	   27	    1	    0	    1	    25	    0
	Transforming integrals...
	IWL integrals will be deleted.
	(OO|OO)...
	Presorting SO-basis two-electron integrals.
	Sorting File: SO Ints (nn|nn) nbuckets = 1
	Transforming the one-electron integrals and constructing Fock matrices
	Starting AA/AB first half-transformation.
	Sorting AA/AB half-transformed integrals.
	Starting BB first half-transformation.
	Sorting BB half-transformed integrals.
	First half integral transformation complete.
	Starting AA second half-transformation.
	Starting AB second half-transformation.
	Starting BB second half-transformation.
	Two-electron integral transformation complete.
	(OO|OV)...
	Starting AA second half-transformation.
	Starting AB second half-transformation.
	Starting BB second half-transformation.
	Two-electron integral transformation complete.
	(OO|VV)...
	Starting AA second half-transformation.
	Starting AB second half-transformation.
	Starting BB second half-transformation.
	Two-electron integral transformation complete.
	(OV|OO)...
	Starting AA/AB first half-transformation.
	Sorting AA/AB half-transformed integrals.
	Starting BB first half-transformation.
	Sorting BB half-transformed integrals.
	First half integral transformation complete.
	Starting AA second half-transformation.
	Starting AB second half-transformation.
	Starting BB second half-transformation.
	Two-electron integral transformation complete.
	(OV|OV)...
	Starting AA second half-transformation.
	Starting AB second half-transformation.
	Starting BB second half-transformation.
	Two-electron integral transformation complete.
	(OV|VV)...
	Starting AA second half-transformation.
	Starting AB second half-transformation.
	Starting BB second half-transformation.
	Two-electron integral transformation complete.
	(VV|OO)...
	Starting AA/AB first half-transformation.
	Sorting AA/AB half-transformed integrals.
	Starting BB first half-transformation.
	Sorting BB half-transformed integrals.
	First half integral transformation complete.
	Starting AA second half-transformation.
	Starting AB second half-transformation.
	Starting BB second half-transformation.
	Two-electron integral transformation complete.
	(VV|OV)...
	Starting AA second half-transformation.
	Starting AB second half-transformation.
	Starting BB second half-transformation.
	Two-electron integral transformation complete.
	(VV|VV)...
	Starting AA second half-transformation.
	Starting AB second half-transformation.
	Starting BB second half-transformation.
	Two-electron integral transformation complete.
	Frozen core energy     =   -387.55337756204028

	Size of irrep 0 of <AB|CD> integrals:      5.593 (MW) /     44.746 (MB)
	Size of irrep 1 of <AB|CD> integrals:      4.757 (MW) /     38.054 (MB)
	Size of irrep 2 of <AB|CD> integrals:      4.757 (MW) /     38.054 (MB)
	Size of irrep 3 of <AB|CD> integrals:      4.757 (MW) /     38.054 (MB)
	Size of irrep 4 of <AB|CD> integrals:      4.060 (MW) /     32.482 (MB)
	Size of irrep 5 of <AB|CD> integrals:      5.203 (MW) /     41.624 (MB)
	Size of irrep 6 of <AB|CD> integrals:      5.203 (MW) /     41.624 (MB)
	Size of irrep 7 of <AB|CD> integrals:      5.203 (MW) /     41.624 (MB)
	Total:                                    39.533 (MW) /    316.261 (MB)

	Size of irrep 0 of <ab|cd> integrals:      5.712 (MW) /     45.697 (MB)
	Size of irrep 1 of <ab|cd> integrals:      4.866 (MW) /     38.931 (MB)
	Size of irrep 2 of <ab|cd> integrals:      4.866 (MW) /     38.931 (MB)
	Size of irrep 3 of <ab|cd> integrals:      4.805 (MW) /     38.439 (MB)
	Size of irrep 4 of <ab|cd> integrals:      4.145 (MW) /     33.162 (MB)
	Size of irrep 5 of <ab|cd> integrals:      5.299 (MW) /     42.394 (MB)
	Size of irrep 6 of <ab|cd> integrals:      5.299 (MW) /     42.394 (MB)
	Size of irrep 7 of <ab|cd> integrals:      5.387 (MW) /     43.096 (MB)
	Total:                                    40.381 (MW) /    323.045 (MB)

	Size of irrep 0 of <Ab|Cd> integrals:     24.443 (MW) /    195.545 (MB)
	Size of irrep 1 of <Ab|Cd> integrals:     19.246 (MW) /    153.966 (MB)
	Size of irrep 2 of <Ab|Cd> integrals:     19.246 (MW) /    153.966 (MB)
	Size of irrep 3 of <Ab|Cd> integrals:     19.123 (MW) /    152.985 (MB)
	Size of irrep 4 of <Ab|Cd> integrals:     16.411 (MW) /    131.285 (MB)
	Size of irrep 5 of <Ab|Cd> integrals:     21.004 (MW) /    168.031 (MB)
	Size of irrep 6 of <Ab|Cd> integrals:     21.004 (MW) /    168.031 (MB)
	Size of irrep 7 of <Ab|Cd> integrals:     21.178 (MW) /    169.427 (MB)
	Total:                                   161.655 (MW) /   1293.237 (MB)

	Size of irrep 0 of <IA|BC> integrals:      0.566 (MW) /      4.525 (MB)
	Size of irrep 1 of <IA|BC> integrals:      0.358 (MW) /      2.861 (MB)
	Size of irrep 2 of <IA|BC> integrals:      0.358 (MW) /      2.861 (MB)
	Size of irrep 3 of <IA|BC> integrals:      0.358 (MW) /      2.861 (MB)
	Size of irrep 4 of <IA|BC> integrals:      0.298 (MW) /      2.386 (MB)
	Size of irrep 5 of <IA|BC> integrals:      0.488 (MW) /      3.905 (MB)
	Size of irrep 6 of <IA|BC> integrals:      0.488 (MW) /      3.905 (MB)
	Size of irrep 7 of <IA|BC> integrals:      0.488 (MW) /      3.905 (MB)
	Total:                                     3.401 (MW) /     27.211 (MB)

	Size of irrep 0 of <ia|bc> integrals:      0.447 (MW) /      3.578 (MB)
	Size of irrep 1 of <ia|bc> integrals:      0.256 (MW) /      2.047 (MB)
	Size of irrep 2 of <ia|bc> integrals:      0.256 (MW) /      2.047 (MB)
	Size of irrep 3 of <ia|bc> integrals:      0.311 (MW) /      2.490 (MB)
	Size of irrep 4 of <ia|bc> integrals:      0.216 (MW) /      1.727 (MB)
	Size of irrep 5 of <ia|bc> integrals:      0.396 (MW) /      3.168 (MB)
	Size of irrep 6 of <ia|bc> integrals:      0.396 (MW) /      3.168 (MB)
	Size of irrep 7 of <ia|bc> integrals:      0.316 (MW) /      2.525 (MB)
	Total:                                     2.594 (MW) /     20.750 (MB)

	Size of irrep 0 of <Ia|Bc> integrals:      0.574 (MW) /      4.588 (MB)
	Size of irrep 1 of <Ia|Bc> integrals:      0.364 (MW) /      2.913 (MB)
	Size of irrep 2 of <Ia|Bc> integrals:      0.364 (MW) /      2.913 (MB)
	Size of irrep 3 of <Ia|Bc> integrals:      0.359 (MW) /      2.869 (MB)
	Size of irrep 4 of <Ia|Bc> integrals:      0.300 (MW) /      2.398 (MB)
	Size of irrep 5 of <Ia|Bc> integrals:      0.490 (MW) /      3.923 (MB)
	Size of irrep 6 of <Ia|Bc> integrals:      0.490 (MW) /      3.923 (MB)
	Size of irrep 7 of <Ia|Bc> integrals:      0.497 (MW) /      3.976 (MB)
	Total:                                     3.438 (MW) /     27.503 (MB)

	Size of irrep 0 of <iA|bC> integrals:      0.445 (MW) /      3.560 (MB)
	Size of irrep 1 of <iA|bC> integrals:      0.250 (MW) /      2.000 (MB)
	Size of irrep 2 of <iA|bC> integrals:      0.250 (MW) /      2.000 (MB)
	Size of irrep 3 of <iA|bC> integrals:      0.310 (MW) /      2.484 (MB)
	Size of irrep 4 of <iA|bC> integrals:      0.215 (MW) /      1.718 (MB)
	Size of irrep 5 of <iA|bC> integrals:      0.394 (MW) /      3.153 (MB)
	Size of irrep 6 of <iA|bC> integrals:      0.394 (MW) /      3.153 (MB)
	Size of irrep 7 of <iA|bC> integrals:      0.308 (MW) /      2.467 (MB)
	Total:                                     2.567 (MW) /     20.535 (MB)

	Size of irrep 0 of tIjAb amplitudes:       0.015 (MW) /      0.119 (MB)
	Size of irrep 1 of tIjAb amplitudes:       0.004 (MW) /      0.035 (MB)
	Size of irrep 2 of tIjAb amplitudes:       0.004 (MW) /      0.035 (MB)
	Size of irrep 3 of tIjAb amplitudes:       0.009 (MW) /      0.070 (MB)
	Size of irrep 4 of tIjAb amplitudes:       0.000 (MW) /      0.000 (MB)
	Size of irrep 5 of tIjAb amplitudes:       0.009 (MW) /      0.073 (MB)
	Size of irrep 6 of tIjAb amplitudes:       0.009 (MW) /      0.073 (MB)
	Size of irrep 7 of tIjAb amplitudes:       0.005 (MW) /      0.037 (MB)
	Total:                                     0.055 (MW) /      0.442 (MB)

	Nuclear Rep. energy          =      0.00000000000000
	SCF energy                   =   -397.54577564010094
	One-electron energy          =    -18.26292014198231
	Two-electron (AA) energy     =      2.15269535179549
	Two-electron (BB) energy     =      1.03394721675829
	Two-electron (AB) energy     =      5.08387949536689
	Two-electron energy          =      8.27052206392067
	Reference energy             =   -397.54577564010191

*** tstop() called on n412-071.vsc4.prov at Mon Nov  2 11:30:03 2020
Module time:
	user time   =      22.80 seconds =       0.38 minutes
	system time =      10.39 seconds =       0.17 minutes
	total time  =         77 seconds =       1.28 minutes
Total time:
	user time   =     342.15 seconds =       5.70 minutes
	system time =      17.77 seconds =       0.30 minutes
	total time  =        172 seconds =       2.87 minutes

*** tstart() called on n412-071.vsc4.prov
*** at Mon Nov  2 11:30:03 2020

            **************************
            *                        *
            *        CCENERGY        *

      * MP2 total energy                      = -397.724783891372454
      * CCSD total energy                     = -397.739947146547024
*** Psi4 exiting successfully. Buy a developer a beer!
