                               Psi4 1.2a1.dev938

  ==> Input File <==

--------------------------------------------------------------------------
# Any line starting with the # character is a comment line
memory 250000 mb
molecule molecule{
-1 2
S          0.0000000000        0.0000000000        0.0000000000
}

set {
  reference uhf
  basis aug-cc-pv(5+d)z
  scf_type OUT_OF_CORE
  freeze_core true
}

energy('ccsd')
--------------------------------------------------------------------------

    Molecular point group: d2h
    Geometry (in Angstrom), charge = -1, multiplicity = 2:

       Center              X                  Y                   Z               Mass
    ------------   -----------------  -----------------  -----------------  -----------------
           S          0.000000000000     0.000000000000     0.000000000000    31.972070999000

  Charge       = -1
  Multiplicity = 2
  Basis Set: AUG-CC-PV(5+D)Z
    Blend: AUG-CC-PV(5+D)Z

    Orbital Energies (a.u.)
    -----------------------

    Alpha Occupied:

       1Ag   -91.680381     2Ag    -8.679679     1B3u   -6.375014
       1B2u   -6.357339     1B1u   -6.357339     3Ag    -0.634443
       2B3u   -0.174002     2B2u   -0.106194     2B1u   -0.106194

    Alpha Virtual:

       3B3u    0.209963     3B1u    0.216932     3B2u    0.216932
       4Ag     0.249523     5Ag     0.366932     1B2g    0.369248
       1B1g    0.369248     6Ag     0.377925     1B3g    0.377925
       4B3u    0.543216     4B2u    0.567660     4B1u    0.567660
       5B3u    0.654672     5B1u    0.656201     5B2u    0.656201
       6B3u    0.660767     1Au     0.660767     7Ag     0.666578
       6B1u    0.669286     6B2u    0.669286     8Ag     0.721341
       2B1g    0.729276     2B2g    0.729276     9Ag     0.759056
       2B3g    0.759056    10Ag     1.303328     3B2g    1.304878
       3B1g    1.304878     3B3g    1.309515    11Ag     1.309515
       4B2g    1.317265     4B1g    1.317265    12Ag     1.328413
       4B3g    1.328413    13Ag     1.423412     7B3u    1.424780
       7B2u    1.431027     7B1u    1.431027     5B1g    1.432506
       5B2g    1.432506     8B3u    1.443788     2Au     1.443788
       9B3u    1.463818     8B1u    1.463826     8B2u    1.463826
      14Ag     1.463953     5B3g    1.463953     9B2u    1.502061
       9B1u    1.502061    15Ag     1.911861    10B3u    2.852348
      10B2u    2.857674    10B1u    2.857674     3Au     2.873809
      11B3u    2.873809    11B1u    2.901417    11B2u    2.901417
      16Ag     2.959032     6B1g    2.962358     6B2g    2.962358
      12B3u    2.965235    12B2u    2.966805    12B1u    2.966805
       4Au     2.971538    13B3u    2.971538     6B3g    2.971980
      17Ag     2.971980    13B2u    2.979506    13B1u    2.979506
       7B2g    2.987164     7B1g    2.987164     5Au     2.990839
      14B3u    2.990839    14B2u    3.005884    14B1u    3.005884
      18Ag     3.007722     7B3g    3.007722    19Ag     3.056340
       8B1g    3.064676     8B2g    3.064676    20Ag     3.093169
       8B3g    3.093169    15B3u    4.161806    15B2u    4.202167
      15B1u    4.202167    16B3u    5.647408    16B2u    5.652300
      16B1u    5.652300    17B3u    5.667145     6Au     5.667145
      17B1u    5.692550    17B2u    5.692550    21Ag     5.970861
      22Ag     6.209855     9B1g    6.216179     9B2g    6.216179
       9B3g    6.243516    23Ag     6.243516    24Ag     6.432683
      10B1g    6.435654    10B2g    6.435654    10B3g    6.444698
      25Ag     6.444698    11B1g    6.460179    11B2g    6.460179
      26Ag     6.483230    11B3g    6.483230    18B3u    6.539080
      18B2u    6.541192    18B1u    6.541192     7Au     6.547555
      19B3u    6.547555    19B2u    6.558255    19B1u    6.558255
       8Au     6.573438    20B3u    6.573438    20B2u    6.593320
      20B1u    6.593320    27Ag    16.551216    12B1g   16.556663
      12B2g   16.556663    12B3g   16.573405    28Ag    16.573405
      21B3u   24.630293    21B2u   24.649767    21B1u   24.649767
      29Ag    56.621300

    Beta Occupied:

       1Ag   -91.671546     2Ag    -8.671098     1B1u   -6.351968
       1B2u   -6.351968     1B3u   -6.337717     3Ag    -0.529908
       2B1u   -0.085506     2B2u   -0.085506

    Beta Virtual:

       2B3u    0.195754     3B1u    0.217980     3B2u    0.217980
       4Ag     0.252697     3B3u    0.293043     5Ag     0.376407
       1B3g    0.376407     1B1g    0.376898     1B2g    0.376898
       6Ag     0.377162     4B1u    0.572489     4B2u    0.572489
       4B3u    0.602690     5B3u    0.660196     5B2u    0.660783
       5B1u    0.660783     1Au     0.663432     6B3u    0.663432
       6B1u    0.668131     6B2u    0.668131     7Ag     0.681593
       8Ag     0.761864     2B3g    0.761864     2B2g    0.780479
       2B1g    0.780479     9Ag     0.787697    10Ag     1.310750
       3B2g    1.311800     3B1g    1.311800     3B3g    1.314956
      11Ag     1.314956     4B2g    1.320192     4B1g    1.320192
      12Ag     1.327365     4B3g    1.327365     7B3u    1.452908
       7B1u    1.454281     7B2u    1.454281     2Au     1.458456
       8B3u    1.458456     8B1u    1.463815     8B2u    1.463815
      13Ag     1.468195     5B3g    1.468195     5B2g    1.472153
       5B1g    1.472153    14Ag     1.473764     9B1u    1.509436
       9B2u    1.509436     9B3u    1.521914    15Ag     1.931845
      10B3u    2.888761    10B1u    2.890415    10B2u    2.890415
       3Au     2.895326    11B3u    2.895326    11B1u    2.903329
      11B2u    2.903329    12B3u    2.977395    12B1u    2.978486
      12B2u    2.978486     4Au     2.981765    13B3u    2.981765
      16Ag     2.983028     6B2g    2.984681     6B1g    2.984681
      13B2u    2.987259    13B1u    2.987259     6B3g    2.989524
      17Ag     2.989524     5Au     2.995009    14B3u    2.995009
       7B2g    2.997277     7B1g    2.997277    14B2u    3.005070
      14B1u    3.005070    18Ag     3.007657     7B3g    3.007657
      19Ag     3.077909     8B2g    3.082139     8B1g    3.082139
      20Ag     3.095083     8B3g    3.095083    15B3u    4.206379
      15B1u    4.208721    15B2u    4.208721    16B3u    5.670239
      16B1u    5.672826    16B2u    5.672826    17B3u    5.680650
       6Au     5.680650    17B1u    5.693890    17B2u    5.693890
      21Ag     5.986279    22Ag     6.225283     9B2g    6.229758
       9B1g    6.229758     9B3g    6.246021    23Ag     6.246021
      24Ag     6.455584    10B2g    6.457294    10B1g    6.457294
      10B3g    6.462469    25Ag     6.462469    11B1g    6.471246
      11B2g    6.471246    26Ag     6.483922    11B3g    6.483922
      18B3u    6.558503    18B1u    6.559868    18B2u    6.559868
       7Au     6.563975    19B3u    6.563975    19B2u    6.570867
      19B1u    6.570867     8Au     6.580612    20B3u    6.580612
      20B2u    6.593308    20B1u    6.593308    27Ag    16.565639
      12B2g   16.568096    12B1g   16.568096    12B3g   16.575698
      28Ag    16.575698    21B1u   24.653973    21B2u   24.653973
      21B3u   24.658259    29Ag    56.627777

    Final Occupation by Irrep:
             Ag   B1g   B2g   B3g    Au   B1u   B2u   B3u
    DOCC [     3,    0,    0,    0,    0,    2,    2,    1 ]
    SOCC [     0,    0,    0,    0,    0,    0,    0,    1 ]

  Energy converged.

  @UHF Final Energy:  -397.54566155876620

   => Energetics <=

    Nuclear Repulsion Energy =              0.0000000000000000
    One-Electron Energy =                -554.5355208806174687
    Two-Electron Energy =                 156.9898593218512417
    PCM Polarization Energy =               0.0000000000000000
    Total Energy =                       -397.5456615587662554

    Alert: EFP and PCM quantities not currently incorporated into SCF psivars.
  UHF NO Occupations:
  HONO-2 :    2B2u 1.9990234
  HONO-1 :    3 Ag 1.9949197
  HONO-0 :    2B3u 1.0000000
  LUNO+0 :    4 Ag 0.0050803
  LUNO+1 :    3B2u 0.0009766
  LUNO+2 :    3B1u 0.0009766
  LUNO+3 :    3B3u 0.0000034

Properties will be evaluated at   0.000000,   0.000000,   0.000000 Bohr

Properties computed using the SCF density matrix

  Nuclear Dipole Moment: (a.u.)
     X:     0.0000      Y:     0.0000      Z:     0.0000

  Electronic Dipole Moment: (a.u.)
     X:     0.0000      Y:     0.0000      Z:     0.0000

  Dipole Moment: (a.u.)
     X:     0.0000      Y:     0.0000      Z:     0.0000     Total:     0.0000

  Dipole Moment: (Debye)
     X:     0.0000      Y:     0.0000      Z:     0.0000     Total:     0.0000

*** tstop() called on cqc05 at Fri Aug 21 06:48:03 2020
Module time:
	user time   =       9.07 seconds =       0.15 minutes
	system time =       0.31 seconds =       0.01 minutes
	total time  =          8 seconds =       0.13 minutes
Total time:
	user time   =       9.07 seconds =       0.15 minutes
	system time =       0.31 seconds =       0.01 minutes
	total time  =          8 seconds =       0.13 minutes

*** tstart() called on cqc05
*** at Fri Aug 21 06:48:03 2020

	Wfn Parameters:
	--------------------
	Wavefunction         = CCSD
	Number of irreps     = 8
	Number of MOs        = 136
	Number of active MOs = 131
	AO-Basis             = NONE
	Semicanonical        = false
	Reference            = UHF
	Print Level          = 1

	IRREP	# MOs	# FZDC	# DOCC	# SOCC	# VIRT	# FZVR
	-----	-----	------	------	------	------	------
	 Ag	   29	    2	    1	    0	    26	    0
	 B1g	   12	    0	    0	    0	    12	    0
	 B2g	   12	    0	    0	    0	    12	    0
	 B3g	   12	    0	    0	    0	    12	    0
	 Au	   8	    0	    0	    0	    8	    0
	 B1u	   21	    1	    1	    0	    19	    0
	 B2u	   21	    1	    1	    0	    19	    0
	 B3u	   21	    1	    0	    1	    19	    0
	Transforming integrals...
	IWL integrals will be deleted.
	(OO|OO)...
	Presorting SO-basis two-electron integrals.
	Sorting File: SO Ints (nn|nn) nbuckets = 1
	Transforming the one-electron integrals and constructing Fock matrices
	Starting AA/AB first half-transformation.
	Sorting AA/AB half-transformed integrals.
	Starting BB first half-transformation.
	Sorting BB half-transformed integrals.
	First half integral transformation complete.
	Starting AA second half-transformation.
	Starting AB second half-transformation.
	Starting BB second half-transformation.
	Two-electron integral transformation complete.
	(OO|OV)...
	Starting AA second half-transformation.
	Starting AB second half-transformation.
	Starting BB second half-transformation.
	Two-electron integral transformation complete.
	(OO|VV)...
	Starting AA second half-transformation.
	Starting AB second half-transformation.
	Starting BB second half-transformation.
	Two-electron integral transformation complete.
	(OV|OO)...
	Starting AA/AB first half-transformation.
	Sorting AA/AB half-transformed integrals.
	Starting BB first half-transformation.
	Sorting BB half-transformed integrals.
	First half integral transformation complete.
	Starting AA second half-transformation.
	Starting AB second half-transformation.
	Starting BB second half-transformation.
	Two-electron integral transformation complete.
	(OV|OV)...
	Starting AA second half-transformation.
	Starting AB second half-transformation.
	Starting BB second half-transformation.
	Two-electron integral transformation complete.
	(OV|VV)...
	Starting AA second half-transformation.
	Starting AB second half-transformation.
	Starting BB second half-transformation.
	Two-electron integral transformation complete.
	(VV|OO)...
	Starting AA/AB first half-transformation.
	Sorting AA/AB half-transformed integrals.
	Starting BB first half-transformation.
	Sorting BB half-transformed integrals.
	First half integral transformation complete.
	Starting AA second half-transformation.
	Starting AB second half-transformation.
	Starting BB second half-transformation.
	Two-electron integral transformation complete.
	(VV|OV)...
	Starting AA second half-transformation.
	Starting AB second half-transformation.
	Starting BB second half-transformation.
	Two-electron integral transformation complete.
	(VV|VV)...
	Starting AA second half-transformation.
	Starting AB second half-transformation.
	Starting BB second half-transformation.
	Two-electron integral transformation complete.
	Frozen core energy     =   -387.55331316409109

	Size of irrep 0 of <AB|CD> integrals:      1.132 (MW) /      9.057 (MB)
	Size of irrep 1 of <AB|CD> integrals:      0.939 (MW) /      7.512 (MB)
	Size of irrep 2 of <AB|CD> integrals:      0.939 (MW) /      7.512 (MB)
	Size of irrep 3 of <AB|CD> integrals:      0.939 (MW) /      7.512 (MB)
	Size of irrep 4 of <AB|CD> integrals:      0.796 (MW) /      6.365 (MB)
	Size of irrep 5 of <AB|CD> integrals:      1.094 (MW) /      8.753 (MB)
	Size of irrep 6 of <AB|CD> integrals:      1.094 (MW) /      8.753 (MB)
	Size of irrep 7 of <AB|CD> integrals:      1.094 (MW) /      8.753 (MB)
	Total:                                     8.027 (MW) /     64.216 (MB)

	Size of irrep 0 of <ab|cd> integrals:      1.173 (MW) /      9.383 (MB)
	Size of irrep 1 of <ab|cd> integrals:      0.976 (MW) /      7.809 (MB)
	Size of irrep 2 of <ab|cd> integrals:      0.976 (MW) /      7.809 (MB)
	Size of irrep 3 of <ab|cd> integrals:      0.955 (MW) /      7.636 (MB)
	Size of irrep 4 of <ab|cd> integrals:      0.817 (MW) /      6.538 (MB)
	Size of irrep 5 of <ab|cd> integrals:      1.119 (MW) /      8.955 (MB)
	Size of irrep 6 of <ab|cd> integrals:      1.119 (MW) /      8.955 (MB)
	Size of irrep 7 of <ab|cd> integrals:      1.149 (MW) /      9.193 (MB)
	Total:                                     8.285 (MW) /     66.279 (MB)

	Size of irrep 0 of <Ab|Cd> integrals:      5.171 (MW) /     41.369 (MB)
	Size of irrep 1 of <Ab|Cd> integrals:      3.830 (MW) /     30.639 (MB)
	Size of irrep 2 of <Ab|Cd> integrals:      3.830 (MW) /     30.639 (MB)
	Size of irrep 3 of <Ab|Cd> integrals:      3.787 (MW) /     30.295 (MB)
	Size of irrep 4 of <Ab|Cd> integrals:      3.226 (MW) /     25.805 (MB)
	Size of irrep 5 of <Ab|Cd> integrals:      4.427 (MW) /     35.415 (MB)
	Size of irrep 6 of <Ab|Cd> integrals:      4.427 (MW) /     35.415 (MB)
	Size of irrep 7 of <Ab|Cd> integrals:      4.486 (MW) /     35.887 (MB)
	Total:                                    33.183 (MW) /    265.463 (MB)

	Size of irrep 0 of <IA|BC> integrals:      0.187 (MW) /      1.497 (MB)
	Size of irrep 1 of <IA|BC> integrals:      0.112 (MW) /      0.899 (MB)
	Size of irrep 2 of <IA|BC> integrals:      0.112 (MW) /      0.899 (MB)
	Size of irrep 3 of <IA|BC> integrals:      0.112 (MW) /      0.899 (MB)
	Size of irrep 4 of <IA|BC> integrals:      0.078 (MW) /      0.628 (MB)
	Size of irrep 5 of <IA|BC> integrals:      0.144 (MW) /      1.155 (MB)
	Size of irrep 6 of <IA|BC> integrals:      0.144 (MW) /      1.155 (MB)
	Size of irrep 7 of <IA|BC> integrals:      0.144 (MW) /      1.155 (MB)
	Total:                                     1.036 (MW) /      8.287 (MB)

	Size of irrep 0 of <ia|bc> integrals:      0.147 (MW) /      1.175 (MB)
	Size of irrep 1 of <ia|bc> integrals:      0.079 (MW) /      0.632 (MB)
	Size of irrep 2 of <ia|bc> integrals:      0.079 (MW) /      0.632 (MB)
	Size of irrep 3 of <ia|bc> integrals:      0.098 (MW) /      0.782 (MB)
	Size of irrep 4 of <ia|bc> integrals:      0.058 (MW) /      0.463 (MB)
	Size of irrep 5 of <ia|bc> integrals:      0.121 (MW) /      0.965 (MB)
	Size of irrep 6 of <ia|bc> integrals:      0.121 (MW) /      0.965 (MB)
	Size of irrep 7 of <ia|bc> integrals:      0.094 (MW) /      0.755 (MB)
	Total:                                     0.796 (MW) /      6.368 (MB)

	Size of irrep 0 of <Ia|Bc> integrals:      0.191 (MW) /      1.528 (MB)
	Size of irrep 1 of <Ia|Bc> integrals:      0.115 (MW) /      0.924 (MB)
	Size of irrep 2 of <Ia|Bc> integrals:      0.115 (MW) /      0.924 (MB)
	Size of irrep 3 of <Ia|Bc> integrals:      0.113 (MW) /      0.903 (MB)
	Size of irrep 4 of <Ia|Bc> integrals:      0.079 (MW) /      0.632 (MB)
	Size of irrep 5 of <Ia|Bc> integrals:      0.145 (MW) /      1.161 (MB)
	Size of irrep 6 of <Ia|Bc> integrals:      0.145 (MW) /      1.161 (MB)
	Size of irrep 7 of <Ia|Bc> integrals:      0.148 (MW) /      1.186 (MB)
	Total:                                     1.052 (MW) /      8.420 (MB)

	Size of irrep 0 of <iA|bC> integrals:      0.146 (MW) /      1.164 (MB)
	Size of irrep 1 of <iA|bC> integrals:      0.076 (MW) /      0.611 (MB)
	Size of irrep 2 of <iA|bC> integrals:      0.076 (MW) /      0.611 (MB)
	Size of irrep 3 of <iA|bC> integrals:      0.097 (MW) /      0.778 (MB)
	Size of irrep 4 of <iA|bC> integrals:      0.057 (MW) /      0.460 (MB)
	Size of irrep 5 of <iA|bC> integrals:      0.120 (MW) /      0.959 (MB)
	Size of irrep 6 of <iA|bC> integrals:      0.120 (MW) /      0.959 (MB)
	Size of irrep 7 of <iA|bC> integrals:      0.091 (MW) /      0.729 (MB)
	Total:                                     0.784 (MW) /      6.271 (MB)

	Size of irrep 0 of tIjAb amplitudes:       0.007 (MW) /      0.055 (MB)
	Size of irrep 1 of tIjAb amplitudes:       0.002 (MW) /      0.016 (MB)
	Size of irrep 2 of tIjAb amplitudes:       0.002 (MW) /      0.016 (MB)
	Size of irrep 3 of tIjAb amplitudes:       0.004 (MW) /      0.031 (MB)
	Size of irrep 4 of tIjAb amplitudes:       0.000 (MW) /      0.000 (MB)
	Size of irrep 5 of tIjAb amplitudes:       0.004 (MW) /      0.034 (MB)
	Size of irrep 6 of tIjAb amplitudes:       0.004 (MW) /      0.034 (MB)
	Size of irrep 7 of tIjAb amplitudes:       0.002 (MW) /      0.017 (MB)
	Total:                                     0.025 (MW) /      0.201 (MB)

	Nuclear Rep. energy          =      0.00000000000000
	SCF energy                   =   -397.54566155876620
	One-electron energy          =    -18.26294579552737
	Two-electron (AA) energy     =      2.15265816636344
	Two-electron (BB) energy     =      1.03399734853424
	Two-electron (AB) energy     =      5.08394188595483
	Two-electron energy          =      8.27059740085251
	Reference energy             =   -397.54566155876597

*** tstop() called on cqc05 at Fri Aug 21 06:48:08 2020
Module time:
	user time   =       2.92 seconds =       0.05 minutes
	system time =       1.54 seconds =       0.03 minutes
	total time  =          5 seconds =       0.08 minutes
Total time:
	user time   =      11.99 seconds =       0.20 minutes
	system time =       1.85 seconds =       0.03 minutes
	total time  =         13 seconds =       0.22 minutes

*** tstart() called on cqc05
*** at Fri Aug 21 06:48:08 2020

            **************************
            *                        *
            *        CCENERGY        *
            *                        *
            **************************

    Nuclear Rep. energy (wfn)     =    0.000000000000000
    SCF energy          (wfn)     = -397.545661558766199
    Reference energy    (file100) = -397.545661558765971

    Input parameters:
    -----------------
    Wave function   =     CCSD
    Reference wfn   =     UHF
    Brueckner       =     No
    Memory (Mbytes) =     250000.0
    Maxiter         =     50
    R_Convergence   =     1.0e-07
    E_Convergence   =     1.0e-06
    Restart         =     Yes
    DIIS            =     Yes
    AO Basis        =     NONE
    ABCD            =     NEW
    Cache Level     =     2
    Cache Type      =     LRU
    Print Level     =     1
    Num. of threads =     4
    # Amps to Print =     10
    Print MP2 Amps? =     No
    Analyze T2 Amps =     No
    Print Pair Ener =     No
    Local CC        =     No
    SCS-MP2         =     False
    SCSN-MP2        =     False
    SCS-CCSD        =     False

MP2 correlation energy -0.1760720079807854
                Solving CC Amplitude Equations
                ------------------------------
  Iter             Energy              RMS        T1Diag      D1Diag    New D1Diag    D2Diag
  ----     ---------------------    ---------   ----------  ----------  ----------   --------
     0        -0.176072007980788    0.000e+00    0.000000    0.000000    0.000000    0.000000
     1        -0.187176087455349    4.505e-02    0.008850    0.000000    0.000000    0.000000

      * MP2 total energy                      = -397.721733566746764
      * CCSD total energy                     = -397.738260075859557
*** Psi4 exiting successfully. Buy a developer a beer!
