                               Psi4 1.2a1.dev939

  ==> Input File <==

--------------------------------------------------------------------------
# Any line starting with the # character is a comment line

memory 32000 mb

molecule molecule {
0 1
C         -0.0000000000        0.0000000000       -1.2269371074
Cl         0.0000000000        0.0000000000        0.5495574478
H          1.0284771469        0.0000000000       -1.5697755158
H         -0.5142385735        0.8906873364       -1.5697755158
H         -0.5142385735       -0.8906873364       -1.5697755158
}

set {
  reference rhf
  basis aug-cc-pv(D+d)z
  scf_type OUT_OF_CORE
  freeze_core true
}

energy('ccsd')
--------------------------------------------------------------------------

    Molecular point group: cs

    Geometry (in Angstrom), charge = 0, multiplicity = 1:

       Center              X                  Y                   Z               Mass
    ------------   -----------------  -----------------  -----------------  -----------------
           C         -0.000000000001     1.221895753131     0.000000000000    12.000000000000
          CL         -0.000000000001    -0.554598802069     0.000000000000    34.968852682000
           H         -0.514238573427     1.564734161531     0.890687336442     1.007825032070
           H         -0.514238573427     1.564734161531    -0.890687336442     1.007825032070
           H          1.028477146900     1.564734161531     0.000000000000     1.007825032070

  Charge       = 0
  Multiplicity = 1
  Basis Set: AUG-CC-PV(D+D)Z
    Blend: AUG-CC-PV(D+D)Z

    Orbital Energies (a.u.)
    -----------------------

    Doubly Occupied:

       1Ap  -104.823945     2Ap   -11.296692     3Ap   -10.550161
       4Ap    -8.017989     5Ap    -8.014604     1App   -8.014604
       6Ap    -1.131738     7Ap    -0.916501     8Ap    -0.618891
       2App   -0.618891     9Ap    -0.548800     3App   -0.435617
      10Ap    -0.435617

  @RHF Final Energy:  -499.12404838810755

   => Energetics <=

    Nuclear Repulsion Energy =             51.5172752706991162
    One-Electron Energy =                -790.4345450358847529
    Two-Electron Energy =                 239.7932213770781118
    Total Energy =                       -499.1240483881075534
      * MP2 total energy                      = -499.430237114222621
      * CCSD total energy                     = -499.461414868555153
*** Psi4 exiting successfully. Buy a developer a beer!
