                               Psi4 1.4a3.dev88

  ==> Input File <==

--------------------------------------------------------------------------
# Any line starting with the # character is a comment line
memory 250000 mb
molecule molecule{
-1 2
S          0.0000000000        0.0000000000        1.0065241194
S          0.0000000000        0.0000000000       -1.0065241194
}

set {
  reference uhf
  basis aug-cc-pV(5+d)Z
  scf_type OUT_OF_CORE
  freeze_core true
}

energy('ccsd(t)')
--------------------------------------------------------------------------

    Molecular point group: d2h

    Geometry (in Angstrom), charge = -1, multiplicity = 2:

       Center              X                  Y                   Z               Mass
    ------------   -----------------  -----------------  -----------------  -----------------
         S            0.000000000000     0.000000000000     1.006524119400    31.972071174400
         S            0.000000000000     0.000000000000    -1.006524119400    31.972071174400

  Charge       = -1
  Multiplicity = 2
  Basis Set: AUG-CC-PV(5+D)Z
    Blend: AUG-CC-PV(5+D)Z

    Orbital Energies [Eh]
    ---------------------

    Alpha Occupied:

       1Ag   -91.745062     1B1u  -91.745060     2Ag    -8.744130
       2B1u   -8.743915     1B3u   -6.433647     1B2g   -6.433620
       3Ag    -6.423572     3B1u   -6.423041     1B2u   -6.422228
       1B3g   -6.422199     4Ag    -0.803312     4B1u   -0.593848
       2B3u   -0.264268     5Ag    -0.257106     2B2u   -0.229546
       2B2g   -0.135419     2B3g   -0.092581

    Alpha Virtual:

       5B1u    0.147705     6Ag     0.185265     3B3u    0.200767
       3B2g    0.201873     3B2u    0.204231     3B3g    0.204682
       7Ag     0.248720     6B1u    0.269597     1B1g    0.341444
       8Ag     0.341454     9Ag     0.360762     7B1u    0.361290
       4B2g    0.379356     4B3g    0.383794     4B3u    0.385612
       4B2u    0.391567     1Au     0.392279     8B1u    0.392525
       9B1u    0.415460     5B3u    0.509968     5B2u    0.520904
      10Ag     0.547049     5B2g    0.565178     5B3g    0.575914
      10B1u    0.600198    11Ag     0.605159     6B3u    0.614264
       6B2u    0.614281     7B3u    0.629298     2B1g    0.642010
      12Ag     0.642494     7B2u    0.647038    11B1u    0.693999
       2Au     0.694081    13Ag     0.704900     6B2g    0.707556
       6B3g    0.707569     3B1g    0.715709    14Ag     0.719409
       7B2g    0.736507     7B3g    0.745956    12B1u    0.753975
       8B3u    0.812185     8B2u    0.820865    13B1u    0.863796
       3Au     0.865521    14B1u    0.875570    15Ag     0.973822
       8B2g    1.048025     8B3g    1.064882    15B1u    1.113946
       9B3u    1.230357    16Ag     1.230728     4B1g    1.230729
      17Ag     1.232997     9B2u    1.243108     9B2g    1.261522
       9B3g    1.281370    10B3u    1.282553    10B2u    1.282648
       5B1g    1.326255    18Ag     1.326561    16B1u    1.370116
       4Au     1.370158    11B3u    1.382015    11B2u    1.382350
      17B1u    1.384193     5Au     1.385812     6B1g    1.406828
      19Ag     1.406875    12B3u    1.418004    18B1u    1.424773
      12B2u    1.441171    10B2g    1.452016    10B3g    1.452074
      20Ag     1.464331    13B3u    1.475373    13B2u    1.489286
      11B2g    1.495949    11B3g    1.507774    21Ag     1.536802
      19B1u    1.547758     6Au     1.548135     7B1g    1.550476
      22Ag     1.552481    12B2g    1.586671    12B3g    1.586697
      20B1u    1.650555    13B2g    1.703356    13B3g    1.719932
      21B1u    1.802254    23Ag     1.936745    22B1u    1.953440
      14B3u    1.953568     7Au     1.956370    14B2u    1.968199
      23B1u    1.974634    14B2g    2.301514    14B3g    2.321168
      24Ag     2.390827    24B1u    2.645904    25Ag     2.664388
       8B1g    2.664892    15B3u    2.667024    15B2u    2.682736
      16B3u    2.734406    16B2u    2.734539    26Ag     2.767792
       9B1g    2.784405    27Ag     2.784406    17B3u    2.834201
      17B2u    2.834217    15B2g    2.871019    15B3g    2.871477
      18B3u    2.888588    18B2u    2.888588    16B2g    2.900357
      28Ag     2.914624    10B1g    2.914626    16B3g    2.923052
      11B1g    2.979618    29Ag     2.979884     8Au     2.988346
      25B1u    2.988363    17B2g    3.000797    17B3g    3.000797
      26B1u    3.007250     9Au     3.008849    30Ag     3.012876
      12B1g    3.024976    31Ag     3.038281    27B1u    3.046734
      10Au     3.046735    19B3u    3.056459    19B2u    3.076112
      28B1u    3.077078    20B3u    3.100967    20B2u    3.101817
      18B2g    3.129770    18B3g    3.129961    19B2g    3.186720
      19B3g    3.206264    21B3u    3.213730    21B2u    3.227691
      29B1u    3.237633    11Au     3.237633    30B1u    3.281796
      12Au     3.316836    31B1u    3.319497    32Ag     3.348899
      20B2g    3.392689    20B3g    3.408814    13B1g    3.581692
      33Ag     3.581895    22B3u    3.647396    22B2u    3.670972
      21B2g    3.698000    21B3g    3.698011    34Ag     3.757172
      32B1u    3.947853    33B1u    4.145387    13Au     4.297799
      34B1u    4.298737    22B2g    4.560877    22B3g    4.577816
      23B3u    4.643289    23B2u    4.663247    23B2g    4.789123
      23B3g    4.812796    35Ag     5.098803    35B1u    5.446253
      24B3u    5.597176    24B2u    5.597228    36Ag     5.609337
      14B1g    5.609675    24B2g    5.656073    24B3g    5.656075
      25B3u    5.693077    25B2u    5.711160    37Ag     5.827336
      14Au     5.838226    36B1u    5.838456    38Ag     6.039384
      37B1u    6.047618    25B2g    6.070162    25B3g    6.086492
      15B1g    6.162069    39Ag     6.162890    26B3u    6.228918
      15Au     6.240619    38B1u    6.241546    26B2u    6.248754
      40Ag     6.372407    16B1g    6.381357    41Ag     6.381364
      27B3u    6.385542    27B2u    6.385608    26B2g    6.414460
      16Au     6.435857    39B1u    6.435858    26B3g    6.437567
      17B1g    6.460825    42Ag     6.461403    18B1g    6.471843
      43Ag     6.472234    28B3u    6.490621    28B2u    6.490629
      29B3u    6.509470    29B2u    6.513550    30B3u    6.518792
      30B2u    6.533193    27B2g    6.541805    27B3g    6.541821
      28B2g    6.547253    28B3g    6.547385    44Ag     6.558148
      19B1g    6.576032    45Ag     6.584625    40B1u    6.601320
      17Au     6.638205    41B1u    6.638205    42B1u    6.665045
      18Au     6.818178    43B1u    6.818806    29B2g    6.844406
      29B3g    6.844409    31B3u    7.024191    31B2u    7.040326
      44B1u    7.220801    19Au     7.220832    30B2g    7.274172
      30B3g    7.289205    45B1u    7.516559    31B2g    7.838307
      31B3g    7.856359    46B1u    7.979396    46Ag     8.514316
      47Ag    16.500803    20B1g   16.500829    47B1u   16.597699
      20Au    16.597739    32B3u   16.649340    32B2u   16.660050
      48Ag    17.045437    48B1u   17.050170    32B2g   17.147546
      32B3g   17.158660    33B3u   24.902438    33B2u   24.914585
      33B2g   25.606026    33B3g   25.617962    49Ag    26.413408
      49B1u   27.820801    50Ag    61.962029    50B1u   63.936733

    Beta Occupied:

       1Ag   -91.739240     1B1u  -91.739237     2Ag    -8.738344
       2B1u   -8.738089     3Ag    -6.420922     3B1u   -6.420376
       1B2u   -6.418733     1B3g   -6.418703     1B3u   -6.409280
       1B2g   -6.409228     4Ag    -0.766375     4B1u   -0.523950
       5Ag    -0.240047     2B2u   -0.220865     2B3u   -0.144610
       2B3g   -0.079532

    Beta Virtual:

       5B1u    0.147972     6Ag     0.185653     2B2g    0.188057
       3B3u    0.203083     3B2u    0.204269     3B3g    0.205034
       3B2g    0.239580     7Ag     0.247485     6B1u    0.273320
       1B1g    0.342863     8Ag     0.343008     9Ag     0.361362
       7B1u    0.365519     4B3g    0.384312     4B2g    0.390492
       4B2u    0.390525     4B3u    0.392451     8B1u    0.395688
       1Au     0.395704     9B1u    0.422999     5B2u    0.521858
       5B3u    0.521898    10Ag     0.548514     5B3g    0.577753
       5B2g    0.588368    10B1u    0.604152    11Ag     0.607760
       6B2u    0.614387     6B3u    0.614405     7B2u    0.646971
       2B1g    0.651132    12Ag     0.651220     7B3u    0.666818
       6B3g    0.709640     6B2g    0.709652     2Au     0.712920
      11B1u    0.713138    13Ag     0.713387     3B1g    0.727316
      14Ag     0.727655     7B3g    0.745639     7B2g    0.747149
      12B1u    0.757640     8B2u    0.821272     8B3u    0.822462
      13B1u    0.879408     3Au     0.883661    14B1u    0.884148
      15Ag     0.986168     8B3g    1.067472     8B2g    1.075498
      15B1u    1.119774    16Ag     1.232000     4B1g    1.232011
      17Ag     1.233768     9B3u    1.236020     9B2u    1.243657
      10B3u    1.282013    10B2u    1.282074     9B3g    1.283427
       9B2g    1.290412     5B1g    1.332055    18Ag     1.332349
       4Au     1.373376    16B1u    1.373378    11B2u    1.392739
      11B3u    1.392767     5Au     1.400134    17B1u    1.400202
       6B1g    1.426207    19Ag     1.426310    18B1u    1.427763
      12B2u    1.444071    12B3u    1.448933    10B2g    1.463132
      10B3g    1.463147    20Ag     1.466809    13B2u    1.490199
      13B3u    1.491985    11B2g    1.501120    11B3g    1.507389
      21Ag     1.540109     7B1g    1.554910    22Ag     1.555665
       6Au     1.560309    19B1u    1.560342    12B2g    1.590391
      12B3g    1.590396    20B1u    1.657732    13B2g    1.718443
      13B3g    1.722059    21B1u    1.807367    23Ag     1.950771
      22B1u    1.960519     7Au     1.962073    14B3u    1.964157
      14B2u    1.968855    23B1u    1.977673    14B2g    2.322930
      14B3g    2.323529    24Ag     2.390346    24B1u    2.656379
       8B1g    2.668771    25Ag     2.668808    15B3u    2.676291
      15B2u    2.684711    16B3u    2.736597    16B2u    2.736616
      26Ag     2.775733     9B1g    2.785956    27Ag     2.785956
      17B3u    2.852834    17B2u    2.852835    15B2g    2.890308
      15B3g    2.890324    18B3u    2.893230    18B2u    2.893230
      16B2g    2.915817    16B3g    2.924182    28Ag     2.926607
      10B1g    2.926607    29Ag     2.989239    11B1g    2.989276
      25B1u    3.000523     8Au     3.000523    17B2g    3.006459
      17B3g    3.006459    26B1u    3.019113     9Au     3.019361
      30Ag     3.027396    12B1g    3.035348    31Ag     3.040345
      27B1u    3.057281    10Au     3.057315    19B3u    3.067643
      19B2u    3.078010    28B1u    3.080074    20B3u    3.106273
      20B2u    3.106460    18B2g    3.138286    18B3g    3.138310
      19B2g    3.198433    19B3g    3.208069    21B3u    3.220956
      21B2u    3.227593    29B1u    3.241987    11Au     3.241987
      30B1u    3.288852    12Au     3.322228    31B1u    3.322988
      32Ag     3.351206    20B2g    3.398143    20B3g    3.408927
      13B1g    3.586125    33Ag     3.586181    22B3u    3.667793
      22B2u    3.674211    21B2g    3.701827    21B3g    3.701830
      34Ag     3.759855    32B1u    3.949892    33B1u    4.149750
      13Au     4.302306    34B1u    4.302747    22B2g    4.568911
      22B3g    4.579001    23B3u    4.659737    23B2u    4.665521
      23B2g    4.812505    23B3g    4.816109    35Ag     5.103217
      35B1u    5.452004    24B3u    5.609939    24B2u    5.609947
      36Ag     5.617555    14B1g    5.617650    24B3g    5.668341
      24B2g    5.668341    25B3u    5.702432    25B2u    5.712041
      37Ag     5.831204    14Au     5.845577    36B1u    5.845629
      38Ag     6.044965    37B1u    6.055648    25B2g    6.077441
      25B3g    6.087353    15B1g    6.170118    39Ag     6.170429
      26B3u    6.238846    15Au     6.250506    38B1u    6.250772
      26B2u    6.250781    40Ag     6.380737    16B1g    6.394368
      41Ag     6.394369    27B3u    6.394518    27B2u    6.394531
      26B2g    6.427451    26B3g    6.439896    39B1u    6.448418
      16Au     6.448418    17B1g    6.468052    42Ag     6.468379
      18B1g    6.477325    43Ag     6.477379    28B3u    6.501751
      28B2u    6.501753    29B3u    6.518000    29B2u    6.520011
      30B3u    6.524250    30B2u    6.534366    27B2g    6.552968
      27B3g    6.552969    28B2g    6.555575    28B3g    6.555596
      44Ag     6.568063    19B1g    6.582929    45Ag     6.586293
      40B1u    6.605943    17Au     6.646534    41B1u    6.646534
      42B1u    6.668638    18Au     6.823017    43B1u    6.823281
      29B2g    6.850605    29B3g    6.850605    31B3u    7.030304
      31B2u    7.040589    44B1u    7.225993    19Au     7.225996
      30B2g    7.279689    30B3g    7.290125    45B1u    7.519376
      31B2g    7.845202    31B3g    7.857365    46B1u    7.983604
      46Ag     8.516271    20B1g   16.508336    47Ag    16.508345
      20Au    16.605277    47B1u   16.605284    32B3u   16.656509
      32B2u   16.661367    48Ag    17.048560    48B1u   17.053245
      32B2g   17.154738    32B3g   17.159971    33B2u   24.917202
      33B3u   24.920416    33B3g   25.620504    33B2g   25.623445
      49Ag    26.415436    49B1u   27.822543    50Ag    61.965950
      50B1u   63.940623

    Final Occupation by Irrep:
             Ag   B1g   B2g   B3g    Au   B1u   B2u   B3u
    DOCC [     5,    0,    1,    2,    0,    4,    2,    2 ]
    SOCC [     0,    0,    1,    0,    0,    0,    0,    0 ]

  @UHF Final Energy:  -795.13816824184937

   => Energetics <=

    Nuclear Repulsion Energy =             67.2956381871279916
    One-Electron Energy =               -1241.5275315057958778
    Two-Electron Energy =                 379.0937250768186004
    Total Energy =                       -795.1381682418493710

  UHF NO Occupations:
  HONO-2 :    4B1u 1.9974410
  HONO-1 :    2B3u 1.9876702
  HONO-0 :    2B2g 1.0000000
  LUNO+0 :    3B3u 0.0123298
  LUNO+1 :    5B1u 0.0025590
  LUNO+2 :    6 Ag 0.0023290
  LUNO+3 :    3B3g 0.0003347

Computation Completed

Properties will be evaluated at   0.000000,   0.000000,   0.000000 [a0]

Properties computed using the SCF density matrix

  Nuclear Dipole Moment: [e a0]
     X:     0.0000      Y:     0.0000      Z:     0.0000

  Electronic Dipole Moment: [e a0]
     X:     0.0000      Y:     0.0000      Z:     0.0000

  Dipole Moment: [e a0]
     X:     0.0000      Y:     0.0000      Z:     0.0000     Total:     0.0000

  Dipole Moment: [D]
     X:     0.0000      Y:     0.0000      Z:     0.0000     Total:     0.0000

*** tstop() called on n412-045.vsc4.prov at Fri Jan 22 07:35:17 2021
Module time:
	user time   =     196.37 seconds =       3.27 minutes
	system time =      11.45 seconds =       0.19 minutes
	total time  =        159 seconds =       2.65 minutes
Total time:
	user time   =     196.37 seconds =       3.27 minutes
	system time =      11.45 seconds =       0.19 minutes
	total time  =        159 seconds =       2.65 minutes

*** tstart() called on n412-045.vsc4.prov
*** at Fri Jan 22 07:35:17 2021

	Wfn Parameters:
	--------------------
	Wavefunction         = CCSD_T
	Number of irreps     = 8
	Number of MOs        = 272
	Number of active MOs = 262
	AO-Basis             = NONE
	Semicanonical        = false
	Reference            = UHF
	Print Level          = 1

	IRREP	# MOs	# FZDC	# DOCC	# SOCC	# VIRT	# FZVR
	-----	-----	------	------	------	------	------
	 Ag	   50	    3	    2	    0	    45	    0
	 B1g	   20	    0	    0	    0	    20	    0
	 B2g	   33	    1	    0	    1	    31	    0
	 B3g	   33	    1	    1	    0	    31	    0
	 Au	   20	    0	    0	    0	    20	    0
	 B1u	   50	    3	    1	    0	    46	    0
	 B2u	   33	    1	    1	    0	    31	    0
	 B3u	   33	    1	    1	    0	    31	    0
	Transforming integrals...
	IWL integrals will be deleted.
	(OO|OO)...
	Presorting SO-basis two-electron integrals.
	Sorting File: SO Ints (nn|nn) nbuckets = 1
	Constructing frozen core operators
	Starting AA/AB first half-transformation.
	Sorting AA/AB half-transformed integrals.
	Starting BB first half-transformation.
	Sorting BB half-transformed integrals.
	First half integral transformation complete.
	Starting AA second half-transformation.
	Starting AB second half-transformation.
	Starting BB second half-transformation.
	Two-electron integral transformation complete.
	(OO|OV)...
	Starting AA second half-transformation.
	Starting AB second half-transformation.
	Starting BB second half-transformation.
	Two-electron integral transformation complete.
	(OO|VV)...
	Starting AA second half-transformation.
	Starting AB second half-transformation.
	Starting BB second half-transformation.
	Two-electron integral transformation complete.
	(OV|OO)...
	Starting AA/AB first half-transformation.
	Sorting AA/AB half-transformed integrals.
	Starting BB first half-transformation.
	Sorting BB half-transformed integrals.
	First half integral transformation complete.
	Starting AA second half-transformation.
	Starting AB second half-transformation.
	Starting BB second half-transformation.
	Two-electron integral transformation complete.
	(OV|OV)...
	Starting AA second half-transformation.
	Starting AB second half-transformation.
	Starting BB second half-transformation.
	Two-electron integral transformation complete.
	(OV|VV)...
	Starting AA second half-transformation.
	Starting AB second half-transformation.
	Starting BB second half-transformation.
	Two-electron integral transformation complete.
	(VV|OO)...
	Starting AA/AB first half-transformation.
	Sorting AA/AB half-transformed integrals.
	Starting BB first half-transformation.
	Sorting BB half-transformed integrals.
	First half integral transformation complete.
	Starting AA second half-transformation.
	Starting AB second half-transformation.
	Starting BB second half-transformation.
	Two-electron integral transformation complete.
	(VV|OV)...
	Starting AA second half-transformation.
	Starting AB second half-transformation.
	Starting BB second half-transformation.
	Two-electron integral transformation complete.
	(VV|VV)...
	Starting AA second half-transformation.
	Starting AB second half-transformation.
	Starting BB second half-transformation.
	Two-electron integral transformation complete.
	Frozen core energy     =   -832.94160879000208

	Size of irrep 0 of <AB|CD> integrals:     18.190 (MW) /    145.522 (MB)
	Size of irrep 1 of <AB|CD> integrals:     14.003 (MW) /    112.021 (MB)
	Size of irrep 2 of <AB|CD> integrals:     16.492 (MW) /    131.934 (MB)
	Size of irrep 3 of <AB|CD> integrals:     16.492 (MW) /    131.934 (MB)
	Size of irrep 4 of <AB|CD> integrals:     14.003 (MW) /    112.021 (MB)
	Size of irrep 5 of <AB|CD> integrals:     19.290 (MW) /    154.317 (MB)
	Size of irrep 6 of <AB|CD> integrals:     16.492 (MW) /    131.934 (MB)
	Size of irrep 7 of <AB|CD> integrals:     16.492 (MW) /    131.934 (MB)
	Total:                                   131.452 (MW) /   1051.615 (MB)

	Size of irrep 0 of <ab|cd> integrals:     18.456 (MW) /    147.645 (MB)
	Size of irrep 1 of <ab|cd> integrals:     14.236 (MW) /    113.884 (MB)
	Size of irrep 2 of <ab|cd> integrals:     16.859 (MW) /    134.874 (MB)
	Size of irrep 3 of <ab|cd> integrals:     16.655 (MW) /    133.236 (MB)
	Size of irrep 4 of <ab|cd> integrals:     14.236 (MW) /    113.884 (MB)
	Size of irrep 5 of <ab|cd> integrals:     19.563 (MW) /    156.503 (MB)
	Size of irrep 6 of <ab|cd> integrals:     16.655 (MW) /    133.236 (MB)
	Size of irrep 7 of <ab|cd> integrals:     16.867 (MW) /    134.940 (MB)
	Total:                                   133.525 (MW) /   1068.203 (MB)

	Size of irrep 0 of <Ab|Cd> integrals:     77.722 (MW) /    621.775 (MB)
	Size of irrep 1 of <Ab|Cd> integrals:     56.475 (MW) /    451.802 (MB)
	Size of irrep 2 of <Ab|Cd> integrals:     66.700 (MW) /    533.599 (MB)
	Size of irrep 3 of <Ab|Cd> integrals:     66.292 (MW) /    530.337 (MB)
	Size of irrep 4 of <Ab|Cd> integrals:     56.475 (MW) /    451.802 (MB)
	Size of irrep 5 of <Ab|Cd> integrals:     77.704 (MW) /    621.634 (MB)
	Size of irrep 6 of <Ab|Cd> integrals:     66.292 (MW) /    530.337 (MB)
	Size of irrep 7 of <Ab|Cd> integrals:     66.716 (MW) /    533.730 (MB)
	Total:                                   534.377 (MW) /   4275.016 (MB)

	Size of irrep 0 of <IA|BC> integrals:      2.284 (MW) /     18.273 (MB)
	Size of irrep 1 of <IA|BC> integrals:      1.377 (MW) /     11.016 (MB)
	Size of irrep 2 of <IA|BC> integrals:      1.819 (MW) /     14.555 (MB)
	Size of irrep 3 of <IA|BC> integrals:      1.819 (MW) /     14.555 (MB)
	Size of irrep 4 of <IA|BC> integrals:      1.377 (MW) /     11.016 (MB)
	Size of irrep 5 of <IA|BC> integrals:      2.293 (MW) /     18.341 (MB)
	Size of irrep 6 of <IA|BC> integrals:      1.819 (MW) /     14.555 (MB)
	Size of irrep 7 of <IA|BC> integrals:      1.819 (MW) /     14.555 (MB)
	Total:                                    14.608 (MW) /    116.865 (MB)

	Size of irrep 0 of <ia|bc> integrals:      2.026 (MW) /     16.210 (MB)
	Size of irrep 1 of <ia|bc> integrals:      1.162 (MW) /      9.297 (MB)
	Size of irrep 2 of <ia|bc> integrals:      1.486 (MW) /     11.891 (MB)
	Size of irrep 3 of <ia|bc> integrals:      1.665 (MW) /     13.320 (MB)
	Size of irrep 4 of <ia|bc> integrals:      1.162 (MW) /      9.297 (MB)
	Size of irrep 5 of <ia|bc> integrals:      2.043 (MW) /     16.347 (MB)
	Size of irrep 6 of <ia|bc> integrals:      1.665 (MW) /     13.320 (MB)
	Size of irrep 7 of <ia|bc> integrals:      1.470 (MW) /     11.762 (MB)
	Total:                                    12.681 (MW) /    101.444 (MB)

	Size of irrep 0 of <Ia|Bc> integrals:      2.301 (MW) /     18.408 (MB)
	Size of irrep 1 of <Ia|Bc> integrals:      1.390 (MW) /     11.122 (MB)
	Size of irrep 2 of <Ia|Bc> integrals:      1.846 (MW) /     14.766 (MB)
	Size of irrep 3 of <Ia|Bc> integrals:      1.824 (MW) /     14.590 (MB)
	Size of irrep 4 of <Ia|Bc> integrals:      1.390 (MW) /     11.122 (MB)
	Size of irrep 5 of <Ia|Bc> integrals:      2.310 (MW) /     18.476 (MB)

      * MP2 total energy                      = -795.524041484745226
      * CCSD total energy                     = -795.542575565402558
      * CCSD(T) total energy                     = -795.567673906670052
*** Psi4 exiting successfully. Buy a developer a beer!
