                               Psi4 1.4a3.dev88

  ==> Input File <==

--------------------------------------------------------------------------
# Any line starting with the # character is a comment line
memory 250000 mb
molecule molecule{
-1 2
S          0.0000000000        0.0000000000        1.0065241194
S          0.0000000000        0.0000000000       -1.0065241194
}

set {
  reference uhf
  basis aug-cc-pV(d+d)Z
  scf_type OUT_OF_CORE
  freeze_core true
}

energy('ccsd(t)')
--------------------------------------------------------------------------

    Molecular point group: d2h

    Geometry (in Angstrom), charge = -1, multiplicity = 2:

       Center              X                  Y                   Z               Mass
    ------------   -----------------  -----------------  -----------------  -----------------
         S            0.000000000000     0.000000000000     1.006524119400    31.972071174400
         S            0.000000000000     0.000000000000    -1.006524119400    31.972071174400

  Charge       = -1
  Multiplicity = 2
  Basis Set: AUG-CC-PV(D+D)Z
    Blend: AUG-CC-PV(D+D)Z

    Orbital Energies [Eh]
    ---------------------

    Alpha Occupied:

       1Ag   -91.747785     1B1u  -91.747785     2Ag    -8.747314
       2B1u   -8.747162     1B3u   -6.435843     1B2g   -6.435812
       3Ag    -6.427585     3B1u   -6.427068     1B2u   -6.424046
       1B3g   -6.424014     4Ag    -0.807843     4B1u   -0.595882
       2B3u   -0.264674     5Ag    -0.260392     2B2u   -0.230116
       2B2g   -0.134026     2B3g   -0.093199

    Alpha Virtual:

       5B1u    0.198164     6Ag     0.258459     3B3u    0.270541
       3B2u    0.277834     3B2g    0.287194     3B3g    0.294550
       7Ag     0.314557     6B1u    0.363748     7B1u    0.436777
       8Ag     0.527499     1B1g    0.527791     4B3u    0.552808
       4B2u    0.571286     9Ag     0.644562     1Au     0.651740
       8B1u    0.651746     4B2g    0.787802     4B3g    0.805629
       9B1u    0.817753     5B3u    1.011938     5B2u    1.036187
      10B1u    1.087864    10Ag     1.100878     5B2g    1.107249
       5B3g    1.131561    11Ag     1.222939     6B3u    1.228431
       6B2u    1.247403     2B1g    1.271969    12Ag     1.273192
      13Ag     1.314765    11B1u    1.318210     2Au     1.318443
       6B2g    1.399405     6B3g    1.421443    12B1u    1.538008
      13B1u    1.882545     7B3u    5.197726     7B2u    5.210716
      14Ag     5.233006     3B1g    5.257335    15Ag     5.259690
      14B1u    5.292304     3Au     5.292626     7B2g    5.371261
       7B3g    5.385119    15B1u    5.478687

    Beta Occupied:

       1Ag   -91.742477     1B1u  -91.742476     2Ag    -8.741496
       2B1u   -8.741308     3Ag    -6.425022     3B1u   -6.424492
       1B2u   -6.420611     1B3g   -6.420577     1B3u   -6.412789
       1B2g   -6.412736     4Ag    -0.770239     4B1u   -0.526486
       5Ag    -0.241574     2B2u   -0.219825     2B3u   -0.145680
       2B3g   -0.078412

    Beta Virtual:

       5B1u    0.199603     2B2g    0.205571     6Ag     0.260275
       3B3u    0.277152     3B2u    0.278258     3B3g    0.295968
       7Ag     0.312103     3B2g    0.320292     6B1u    0.375016
       7B1u    0.443302     1B1g    0.541768     8Ag     0.542043
       4B2u    0.571568     4B3u    0.589959     9Ag     0.654228
       1Au     0.680282     8B1u    0.680906     4B3g    0.808051
       4B2g    0.817552     9B1u    0.828413     5B2u    1.041662
       5B3u    1.059112    10B1u    1.093565    10Ag     1.111949
       5B3g    1.136521     5B2g    1.149907    11Ag     1.232761
       6B3u    1.249397     6B2u    1.249655    12Ag     1.301095
       2B1g    1.301853    13Ag     1.321231     2Au     1.349076
      11B1u    1.349331     6B3g    1.425283     6B2g    1.429671
      12B1u    1.549727    13B1u    1.892849     7B3u    5.201970
       7B2u    5.211433    14Ag     5.236545     3B1g    5.262665
      15Ag     5.263658    14B1u    5.298153     3Au     5.298299
       7B2g    5.377081     7B3g    5.386073    15B1u    5.481207

    Final Occupation by Irrep:
             Ag   B1g   B2g   B3g    Au   B1u   B2u   B3u
    DOCC [     5,    0,    1,    2,    0,    4,    2,    2 ]
    SOCC [     0,    0,    1,    0,    0,    0,    0,    0 ]

  @UHF Final Energy:  -795.10676157503701

   => Energetics <=

    Nuclear Repulsion Energy =             67.2956381871279916
    One-Electron Energy =               -1241.3880539252174913
    Two-Electron Energy =                 378.9856541630525726
    Total Energy =                       -795.1067615750370123

  UHF NO Occupations:
  HONO-2 :    4B1u 1.9979160
  HONO-1 :    2B3u 1.9892534
  HONO-0 :    2B2g 1.0000000
  LUNO+0 :    3B3u 0.0107466
  LUNO+1 :    5B1u 0.0020840
  LUNO+2 :    6 Ag 0.0017575
  LUNO+3 :    3B3g 0.0002071

Computation Completed

Properties will be evaluated at   0.000000,   0.000000,   0.000000 [a0]

Properties computed using the SCF density matrix

  Nuclear Dipole Moment: [e a0]
     X:     0.0000      Y:     0.0000      Z:     0.0000

  Electronic Dipole Moment: [e a0]
     X:     0.0000      Y:     0.0000      Z:     0.0000

  Dipole Moment: [e a0]
     X:     0.0000      Y:     0.0000      Z:     0.0000     Total:     0.0000

  Dipole Moment: [D]
     X:     0.0000      Y:     0.0000      Z:     0.0000     Total:     0.0000

*** tstop() called on n412-039.vsc4.prov at Tue Jan 26 18:35:10 2021
Module time:
	user time   =      23.31 seconds =       0.39 minutes
	system time =       1.59 seconds =       0.03 minutes
	total time  =          5 seconds =       0.08 minutes
Total time:
	user time   =      23.31 seconds =       0.39 minutes
	system time =       1.59 seconds =       0.03 minutes
	total time  =          5 seconds =       0.08 minutes

*** tstart() called on n412-039.vsc4.prov
*** at Tue Jan 26 18:35:10 2021

	Wfn Parameters:
	--------------------
	Wavefunction         = CCSD_T
	Number of irreps     = 8
	Number of MOs        = 64
	Number of active MOs = 54
	AO-Basis             = NONE
	Semicanonical        = false
	Reference            = UHF
	Print Level          = 1

	IRREP	# MOs	# FZDC	# DOCC	# SOCC	# VIRT	# FZVR
	-----	-----	------	------	------	------	------
	 Ag	   15	    3	    2	    0	    10	    0
	 B1g	   3	    0	    0	    0	    3	    0
	 B2g	   7	    1	    0	    1	    5	    0
	 B3g	   7	    1	    1	    0	    5	    0
	 Au	   3	    0	    0	    0	    3	    0
	 B1u	   15	    3	    1	    0	    11	    0
	 B2u	   7	    1	    1	    0	    5	    0
	 B3u	   7	    1	    1	    0	    5	    0
	Transforming integrals...
	IWL integrals will be deleted.
	(OO|OO)...
	Presorting SO-basis two-electron integrals.
	Sorting File: SO Ints (nn|nn) nbuckets = 1
	Constructing frozen core operators
	Starting AA/AB first half-transformation.
	Sorting AA/AB half-transformed integrals.
	Starting BB first half-transformation.
	Sorting BB half-transformed integrals.
	First half integral transformation complete.
	Starting AA second half-transformation.
	Starting AB second half-transformation.
	Starting BB second half-transformation.
	Two-electron integral transformation complete.
	(OO|OV)...
	Starting AA second half-transformation.
	Starting AB second half-transformation.
	Starting BB second half-transformation.
	Two-electron integral transformation complete.
	(OO|VV)...
	Starting AA second half-transformation.
	Starting AB second half-transformation.
	Starting BB second half-transformation.
	Two-electron integral transformation complete.
	(OV|OO)...
	Starting AA/AB first half-transformation.
	Sorting AA/AB half-transformed integrals.
	Starting BB first half-transformation.
	Sorting BB half-transformed integrals.
	First half integral transformation complete.
	Starting AA second half-transformation.
	Starting AB second half-transformation.
	Starting BB second half-transformation.
	Two-electron integral transformation complete.
	(OV|OV)...
	Starting AA second half-transformation.
	Starting AB second half-transformation.
	Starting BB second half-transformation.
	Two-electron integral transformation complete.
	(OV|VV)...
	Starting AA second half-transformation.
	Starting AB second half-transformation.
	Starting BB second half-transformation.
	Two-electron integral transformation complete.
	(VV|OO)...
	Starting AA/AB first half-transformation.
	Sorting AA/AB half-transformed integrals.
	Starting BB first half-transformation.
	Sorting BB half-transformed integrals.
	First half integral transformation complete.
	Starting AA second half-transformation.
	Starting AB second half-transformation.
	Starting BB second half-transformation.
	Two-electron integral transformation complete.
	(VV|OV)...
	Starting AA second half-transformation.
	Starting AB second half-transformation.
	Starting BB second half-transformation.
	Two-electron integral transformation complete.
	(VV|VV)...
	Starting AA second half-transformation.
	Starting AB second half-transformation.
	Starting BB second half-transformation.
	Two-electron integral transformation complete.
	Frozen core energy     =   -832.92514651206784

	Size of irrep 0 of <AB|CD> integrals:      0.021 (MW) /      0.171 (MB)
	Size of irrep 1 of <AB|CD> integrals:      0.013 (MW) /      0.102 (MB)
	Size of irrep 2 of <AB|CD> integrals:      0.018 (MW) /      0.146 (MB)
	Size of irrep 3 of <AB|CD> integrals:      0.018 (MW) /      0.146 (MB)
	Size of irrep 4 of <AB|CD> integrals:      0.013 (MW) /      0.102 (MB)
	Size of irrep 5 of <AB|CD> integrals:      0.029 (MW) /      0.228 (MB)
	Size of irrep 6 of <AB|CD> integrals:      0.018 (MW) /      0.146 (MB)
	Size of irrep 7 of <AB|CD> integrals:      0.018 (MW) /      0.146 (MB)
	Total:                                     0.148 (MW) /      1.187 (MB)

	Size of irrep 0 of <ab|cd> integrals:      0.023 (MW) /      0.182 (MB)
	Size of irrep 1 of <ab|cd> integrals:      0.014 (MW) /      0.111 (MB)
	Size of irrep 2 of <ab|cd> integrals:      0.021 (MW) /      0.168 (MB)
	Size of irrep 3 of <ab|cd> integrals:      0.019 (MW) /      0.152 (MB)
	Size of irrep 4 of <ab|cd> integrals:      0.014 (MW) /      0.111 (MB)
	Size of irrep 5 of <ab|cd> integrals:      0.030 (MW) /      0.242 (MB)
	Size of irrep 6 of <ab|cd> integrals:      0.019 (MW) /      0.152 (MB)
	Size of irrep 7 of <ab|cd> integrals:      0.021 (MW) /      0.171 (MB)
	Total:                                     0.161 (MW) /      1.291 (MB)

	Size of irrep 0 of <Ab|Cd> integrals:      0.118 (MW) /      0.947 (MB)
	Size of irrep 1 of <Ab|Cd> integrals:      0.053 (MW) /      0.427 (MB)
	Size of irrep 2 of <Ab|Cd> integrals:      0.078 (MW) /      0.627 (MB)
	Size of irrep 3 of <Ab|Cd> integrals:      0.075 (MW) /      0.596 (MB)
	Size of irrep 4 of <Ab|Cd> integrals:      0.053 (MW) /      0.427 (MB)
	Size of irrep 5 of <Ab|Cd> integrals:      0.118 (MW) /      0.941 (MB)
	Size of irrep 6 of <Ab|Cd> integrals:      0.075 (MW) /      0.596 (MB)
	Size of irrep 7 of <Ab|Cd> integrals:      0.079 (MW) /      0.632 (MB)
	Total:                                     0.649 (MW) /      5.193 (MB)

	Size of irrep 0 of <IA|BC> integrals:      0.017 (MW) /      0.138 (MB)
	Size of irrep 1 of <IA|BC> integrals:      0.007 (MW) /      0.052 (MB)
	Size of irrep 2 of <IA|BC> integrals:      0.011 (MW) /      0.091 (MB)
	Size of irrep 3 of <IA|BC> integrals:      0.011 (MW) /      0.091 (MB)
	Size of irrep 4 of <IA|BC> integrals:      0.007 (MW) /      0.052 (MB)
	Size of irrep 5 of <IA|BC> integrals:      0.018 (MW) /      0.141 (MB)
	Size of irrep 6 of <IA|BC> integrals:      0.011 (MW) /      0.091 (MB)
	Size of irrep 7 of <IA|BC> integrals:      0.011 (MW) /      0.091 (MB)
	Total:                                     0.093 (MW) /      0.747 (MB)

	Size of irrep 0 of <ia|bc> integrals:      0.016 (MW) /      0.129 (MB)
	Size of irrep 1 of <ia|bc> integrals:      0.006 (MW) /      0.047 (MB)
	Size of irrep 2 of <ia|bc> integrals:      0.010 (MW) /      0.079 (MB)
	Size of irrep 3 of <ia|bc> integrals:      0.011 (MW) /      0.086 (MB)
	Size of irrep 4 of <ia|bc> integrals:      0.006 (MW) /      0.047 (MB)
	Size of irrep 5 of <ia|bc> integrals:      0.017 (MW) /      0.134 (MB)
	Size of irrep 6 of <ia|bc> integrals:      0.011 (MW) /      0.086 (MB)
	Size of irrep 7 of <ia|bc> integrals:      0.009 (MW) /      0.075 (MB)
	Total:                                     0.085 (MW) /      0.683 (MB)

	Size of irrep 0 of <Ia|Bc> integrals:      0.018 (MW) /      0.143 (MB)
	Size of irrep 1 of <Ia|Bc> integrals:      0.007 (MW) /      0.055 (MB)
	Size of irrep 2 of <Ia|Bc> integrals:      0.012 (MW) /      0.099 (MB)
	Size of irrep 3 of <Ia|Bc> integrals:      0.011 (MW) /      0.092 (MB)
	Size of irrep 4 of <Ia|Bc> integrals:      0.007 (MW) /      0.055 (MB)
	Size of irrep 5 of <Ia|Bc> integrals:      0.018 (MW) /      0.145 (MB)
	Size of irrep 6 of <Ia|Bc> integrals:      0.011 (MW) /      0.092 (MB)
	Size of irrep 7 of <Ia|Bc> integrals:      0.012 (MW) /      0.097 (MB)
	Total:                                     0.097 (MW) /      0.778 (MB)

	Size of irrep 0 of <iA|bC> integrals:      0.016 (MW) /      0.127 (MB)
	Size of irrep 1 of <iA|bC> integrals:      0.006 (MW) /      0.044 (MB)
	Size of irrep 2 of <iA|bC> integrals:      0.009 (MW) /      0.072 (MB)
	Size of irrep 3 of <iA|bC> integrals:      0.011 (MW) /      0.085 (MB)
	Size of irrep 4 of <iA|bC> integrals:      0.006 (MW) /      0.044 (MB)
	Size of irrep 5 of <iA|bC> integrals:      0.016 (MW) /      0.129 (MB)
	Size of irrep 6 of <iA|bC> integrals:      0.011 (MW) /      0.085 (MB)
	Size of irrep 7 of <iA|bC> integrals:      0.009 (MW) /      0.070 (MB)
	Total:                                     0.082 (MW) /      0.656 (MB)

	Size of irrep 0 of tIjAb amplitudes:       0.003 (MW) /      0.022 (MB)
	Size of irrep 1 of tIjAb amplitudes:       0.001 (MW) /      0.006 (MB)
	Size of irrep 2 of tIjAb amplitudes:       0.001 (MW) /      0.009 (MB)
	Size of irrep 3 of tIjAb amplitudes:       0.002 (MW) /      0.013 (MB)
	Size of irrep 4 of tIjAb amplitudes:       0.001 (MW) /      0.006 (MB)
	Size of irrep 5 of tIjAb amplitudes:       0.002 (MW) /      0.019 (MB)
	Size of irrep 6 of tIjAb amplitudes:       0.002 (MW) /      0.013 (MB)
	Size of irrep 7 of tIjAb amplitudes:       0.001 (MW) /      0.011 (MB)
	Total:                                     0.012 (MW) /      0.099 (MB)

	Nuclear Rep. energy          =     67.29563818712799
	SCF energy                   =   -795.10676157503701
	One-electron energy          =    -54.58615833863936
	Two-electron (AA) energy     =      6.18037021586323
	Two-electron (BB) energy     =      4.39558079833846
	Two-electron (AB) energy     =     14.53295407434036
	Two-electron energy          =     25.10890508854204
	Reference energy             =   -795.10676157503713

*** tstop() called on n412-039.vsc4.prov at Tue Jan 26 18:35:13 2021
Module time:
	user time   =       0.21 seconds =       0.00 minutes
	system time =       0.56 seconds =       0.01 minutes
	total time  =          3 seconds =       0.05 minutes
Total time:
	user time   =      23.52 seconds =       0.39 minutes
	system time =       2.15 seconds =       0.04 minutes
	total time  =          8 seconds =       0.13 minutes
            **************************
            *                        *
            *        CCENERGY        *
            *                        *
            **************************

    Nuclear Rep. energy (wfn)     =   67.295638187127992
    SCF energy          (wfn)     = -795.106761575037012
    Reference energy    (file100) = -795.106761575037126

    Input parameters:
    -----------------
    Wave function   =     CCSD_T
    Reference wfn   =     UHF
    Brueckner       =     No
    Memory (Mbytes) =     250000.0
    Maxiter         =     50
    R_Convergence   =     1.0e-07
    E_Convergence   =     1.0e-06
    Restart         =     Yes
    DIIS            =     Yes
    AO Basis        =     NONE
    ABCD            =     NEW
    Cache Level     =     2
    Cache Type      =     LRU
    Print Level     =     1
    Num. of threads =     48
    # Amps to Print =     10
    Print MP2 Amps? =     No
    Analyze T2 Amps =     No
    Print Pair Ener =     No
    Local CC        =     No
    SCS-MP2         =     False
    SCSN-MP2        =     False
    SCS-CCSD        =     False

MP2 correlation energy -0.2760762273919879
                Solving CC Amplitude Equations
                ------------------------------
  Iter             Energy              RMS        T1Diag      D1Diag    New D1Diag    D2Diag
  ----     ---------------------    ---------   ----------  ----------  ----------   --------
     0        -0.276076227391988    0.000e+00    0.000000    0.000000    0.000000    0.000000
     1        -0.290830573695382    7.778e-02    0.015414    0.000000    0.000000    0.000000
     2        -0.299626742846053    2.484e-02    0.018905    0.000000    0.000000    0.000000
     3        -0.301350028940671    1.085e-02    0.022074    0.000000    0.000000    0.000000
     4        -0.301279384651180    2.938e-03    0.022960    0.000000    0.000000    0.000000
     5        -0.301253404375228    8.964e-04    0.023135    0.000000    0.000000    0.000000
     6        -0.301247289876901    3.288e-04    0.023177    0.000000    0.000000    0.000000
     7        -0.301248630712133    1.063e-04    0.023180    0.000000    0.000000    0.000000
     8        -0.301250073816611    3.834e-05    0.023178    0.000000    0.000000    0.000000
     9        -0.301250132968655    1.174e-05    0.023178    0.000000    0.000000    0.000000
    10        -0.301250067721229    3.951e-06    0.023178    0.000000    0.000000    0.000000
    11        -0.301250098058228    1.288e-06    0.023178    0.000000    0.000000    0.000000
    12        -0.301250111421271    4.026e-07    0.023178    0.000000    0.000000    0.000000
    13        -0.301250123923793    1.401e-07    0.023178    0.000000    0.000000    0.000000
    14        -0.301250124774245    4.491e-08    0.023178    0.000000    0.000000    0.000000

    Iterations converged.

    Largest TIA Amplitudes:
              6  43        -0.0261195934
              2  13         0.0254030852
              1   3         0.0202171119
              6  42        -0.0187127473
              3  18         0.0160881014
              5  38        -0.0158984246
              5  37        -0.0142060569
              1   7        -0.0121642095
              1   0         0.0088677291
              4  30         0.0086929290

    Largest Tia Amplitudes:
              5  44         0.0312112721
              5  45        -0.0220628573
              4  39        -0.0164034032
              5  43         0.0162549315
              2  19        -0.0139234484
              3  30         0.0136620050
              3  28        -0.0131242790
              1   2        -0.0129102749
              4  38        -0.0119643398
              1   3         0.0099545467

    Largest TIJAB Amplitudes:
      3   1  38  27        -0.0234021241
      6   5  10   2        -0.0229762856
      2   1  43  27        -0.0227740294
      3   2  29  23         0.0203619146
      3   1  38  28        -0.0182505878
      2   1  43  28        -0.0181296476
      3   2  43  38         0.0169918620
      5   1  38   3        -0.0168938948
      6   3  29  10         0.0168481907
      5   2  23   2        -0.0167119939

    Largest Tijab Amplitudes:

      * MP2 total energy                      = -795.382837802429094
      * CCSD total energy                     = -795.408011699811368
      * CCSD(T) total energy                     = -795.421226540792304
*** Psi4 exiting successfully. Buy a developer a beer!
