                               Psi4 1.4a3.dev88

  ==> Input File <==

--------------------------------------------------------------------------
# Any line starting with the # character is a comment line
memory 250000 mb
molecule molecule{
-1 1
N          0.0000000000        0.0000000000        0.0812547326
H          0.0000000000        0.8002632301       -0.5645726249
H          0.0000000000       -0.8002632301       -0.5645726249
}

set {
  reference rhf
  basis aug-cc-pV(6+d)Z
  scf_type OUT_OF_CORE
  freeze_core true
}

energy('ccsd(t)')
--------------------------------------------------------------------------

    Molecular point group: c2v

    Geometry (in Angstrom), charge = -1, multiplicity = 1:

       Center              X                  Y                   Z               Mass
    ------------   -----------------  -----------------  -----------------  -----------------
         N           -0.000000000000     0.000000000000     0.081265021432    14.003074004430
         H           -0.000000000000     0.800263230100    -0.564562336068     1.007825032230
         H            0.000000000000    -0.800263230100    -0.564562336068     1.007825032230

  Charge       = -1
  Multiplicity = 1
  Basis Set: AUG-CC-PV(6+D)Z
    Blend: AUG-CC-PV(6+D)Z

    Orbital Energies [Eh]
    ---------------------

    Doubly Occupied:

       1A1   -15.226756     2A1    -0.761851     1B2    -0.292670
       3A1    -0.144677     1B1    -0.049979

  @RHF Final Energy:   -55.55278669713838

   => Energetics <=

    Nuclear Repulsion Energy =              7.5348319593088453
    One-Electron Energy =                 -93.2233715358088091
    Two-Electron Energy =                  30.1357528793615828
    Total Energy =                        -55.5527866971383801

  Dipole Moment: [D]
     X:     0.0000      Y:     0.0000      Z:    -1.4558     Total:     1.4558

      * MP2 total energy                      =  -55.835645883592690
      * CCSD total energy                     =  -55.832127024126365
      * CCSD(T) total energy                  =  -55.845621325531816
*** Psi4 exiting successfully. Buy a developer a beer!
