                               Psi4 1.4a3.dev88

  ==> Input File <==

--------------------------------------------------------------------------
# Any line starting with the # character is a comment line
memory 250000 mb
molecule molecule{
-1 1
N          0.0000000000        0.0000000000        0.0812547326
H          0.0000000000        0.8002632301       -0.5645726249
H          0.0000000000       -0.8002632301       -0.5645726249
}

set {
  reference rhf
  basis aug-cc-pv(q+d)z
  scf_type OUT_OF_CORE
  freeze_core true
}

energy('ccsd(t)')
--------------------------------------------------------------------------

    Molecular point group: c2v

    Geometry (in Angstrom), charge = -1, multiplicity = 1:

       Center              X                  Y                   Z               Mass
    ------------   -----------------  -----------------  -----------------  -----------------
         N           -0.000000000000     0.000000000000     0.081265021432    14.003074004430
         H           -0.000000000000     0.800263230100    -0.564562336068     1.007825032230
         H            0.000000000000    -0.800263230100    -0.564562336068     1.007825032230

  Charge       = -1
  Multiplicity = 1
  Basis Set: AUG-CC-PV(Q+D)Z
    Blend: AUG-CC-PV(Q+D)Z

    Orbital Energies [Eh]
    ---------------------

    Doubly Occupied:

       1A1   -15.225525     2A1    -0.760617     1B2    -0.291326
       3A1    -0.143261     1B1    -0.049518

  @RHF Final Energy:   -55.55178874832541

   => Energetics <=

    Nuclear Repulsion Energy =              7.5348319593088453
    One-Electron Energy =                 -93.2327483272789976
    Two-Electron Energy =                  30.1461276196447479
    Total Energy =                        -55.5517887483254071

  Dipole Moment: [D]
     X:     0.0000      Y:     0.0000      Z:    -1.4768     Total:     1.4768

      * MP2 total energy                      =  -55.826655888328673
      * CCSD total energy                     =  -55.826190652893665
      * CCSD(T) total energy                  =  -55.839223354225368
*** Psi4 exiting successfully. Buy a developer a beer!
