                               Psi4 1.4a3.dev88

  ==> Input File <==

--------------------------------------------------------------------------
# Any line starting with the # character is a comment line
memory 250000 mb
molecule molecule{
-1 1
N          0.0000000000        0.0000000000        0.0812547326
H          0.0000000000        0.8002632301       -0.5645726249
H          0.0000000000       -0.8002632301       -0.5645726249
}

set {
  reference rhf
  basis aug-cc-pV(d+d)Z
  scf_type OUT_OF_CORE
  freeze_core true
}

energy('ccsd(t)')
--------------------------------------------------------------------------

    Molecular point group: c2v

    Geometry (in Angstrom), charge = -1, multiplicity = 1:

       Center              X                  Y                   Z               Mass
    ------------   -----------------  -----------------  -----------------  -----------------
         N           -0.000000000000     0.000000000000     0.081265021432    14.003074004430
         H           -0.000000000000     0.800263230100    -0.564562336068     1.007825032230
         H            0.000000000000    -0.800263230100    -0.564562336068     1.007825032230

  Charge       = -1
  Multiplicity = 1
  Basis Set: AUG-CC-PV(D+D)Z
    Blend: AUG-CC-PV(D+D)Z

    Orbital Energies [Eh]
    ---------------------

    Doubly Occupied:

       1A1   -15.234945     2A1    -0.760855     1B2    -0.289587
       3A1    -0.140994     1B1    -0.048026

  @RHF Final Energy:   -55.53593133221521

   => Energetics <=

    Nuclear Repulsion Energy =              7.5348319593088453
    One-Electron Energy =                 -93.1927130319920280
    Two-Electron Energy =                  30.1219497404679721
    Total Energy =                        -55.5359313322152133

  Dipole Moment: [D]
     X:     0.0000      Y:     0.0000      Z:    -1.5464     Total:     1.5464

      * MP2 total energy                      =  -55.755903101142408
      * CCSD total energy                     =  -55.763045051556631
      * CCSD(T) total energy                  =  -55.771619808626099
*** Psi4 exiting successfully. Buy a developer a beer!
