                               Psi4 1.4a3.dev88

  ==> Input File <==

--------------------------------------------------------------------------
# Any line starting with the # character is a comment line
memory 250000 mb
molecule molecule{
0 1
S          0.0000000000        0.0000000000        0.3640837090
O          0.0000000000       -1.2543541245       -0.3647800452
O          0.0000000000        1.2543541245       -0.3647800452
}

set {
  reference rhf
  basis aug-cc-pV(Q+d)Z
  scf_type OUT_OF_CORE
  freeze_core true
}

energy('ccsd(t)')
--------------------------------------------------------------------------

    Molecular point group: c2v

    Geometry (in Angstrom), charge = 0, multiplicity = 1:

       Center              X                  Y                   Z               Mass
    ------------   -----------------  -----------------  -----------------  -----------------
         S            0.000000000000     0.000000000000     0.364533056159    31.972071174400
         O            0.000000000000    -1.254354124500    -0.364330698041    15.994914619570
         O           -0.000000000000     1.254354124500    -0.364330698041    15.994914619570

  Charge       = 0
  Multiplicity = 1
  Basis Set: AUG-CC-PV(Q+D)Z
    Blend: AUG-CC-PV(Q+D)Z

    Orbital Energies [Eh]
    ---------------------

    Doubly Occupied:

       1A1   -92.179744     1B2   -20.628832     2A1   -20.628805
       3A1    -9.156985     1B1    -6.839179     2B2    -6.837750
       4A1    -6.836531     5A1    -1.492960     3B2    -1.394412
       6A1    -0.873635     4B2    -0.698473     7A1    -0.688934
       2B1    -0.658597     5B2    -0.544374     1A2    -0.520611
       8A1    -0.498453

  @RHF Final Energy:  -547.31692670168684

   => Energetics <=

    Nuclear Repulsion Energy =            106.8794034402355493
    One-Electron Energy =                -967.4361093477416489
    Two-Electron Energy =                 313.2397792058191612
    Total Energy =                       -547.3169267016869526

  Dipole Moment: [D]
     X:     0.0000      Y:     0.0000      Z:     2.0639     Total:     2.0639

      * MP2 total energy                      = -548.039627180554930
      * CCSD total energy                     = -548.023161542167372
      * CCSD(T) total energy                  = -548.062658530157478
*** Psi4 exiting successfully. Buy a developer a beer!
