                               Psi4 1.4a3.dev88

  ==> Input File <==

--------------------------------------------------------------------------
# Any line starting with the # character is a comment line
memory 250000 mb
molecule molecule{
0 1
S          0.0000000000        0.0000000000        0.3640837090
O          0.0000000000       -1.2543541245       -0.3647800452
O          0.0000000000        1.2543541245       -0.3647800452
}

set {
  reference rhf
  basis aug-cc-pV(6+d)Z
  scf_type OUT_OF_CORE
  freeze_core true
  DOCC [     8,    1,    2,    5 ]
}

energy('ccsd(t)')
--------------------------------------------------------------------------

    Molecular point group: c2v

    Geometry (in Angstrom), charge = 0, multiplicity = 1:

       Center              X                  Y                   Z               Mass
    ------------   -----------------  -----------------  -----------------  -----------------
         S            0.000000000000     0.000000000000     0.364533056159    31.972071174400
         O            0.000000000000    -1.254354124500    -0.364330698041    15.994914619570
         O           -0.000000000000     1.254354124500    -0.364330698041    15.994914619570

  Charge       = 0
  Multiplicity = 1
  Basis Set: AUG-CC-PV(6+D)Z
    Blend: AUG-CC-PV(6+D)Z

    Orbital Energies [Eh]
    ---------------------

    Doubly Occupied:

       1A1   -92.176606     1B2   -20.627970     2A1   -20.627943
       3A1    -9.155515     1B1    -6.837582     2B2    -6.836240
       4A1    -6.835307     5A1    -1.492453     3B2    -1.393981
       6A1    -0.873325     4B2    -0.698343     7A1    -0.688766
       2B1    -0.658409     5B2    -0.544330     1A2    -0.520731
       8A1    -0.498599

  @RHF Final Energy:  -547.32161542724282

   => Energetics <=

    Nuclear Repulsion Energy =            106.8794034402355493
    One-Electron Energy =                -967.4698353286325982
    Two-Electron Energy =                 313.2688164611541310
    Total Energy =                       -547.3216154272429321

  Dipole Moment: [D]
     X:     0.0000      Y:     0.0000      Z:     2.0628     Total:     2.0628

      * MP2 total energy                      = -548.072464522160772
      * CCSD total energy                     = -548.047864133343978
      * CCSD(T) total energy                  = -548.088791767061252
*** Psi4 exiting successfully. Buy a developer a beer!
