                               Psi4 1.4a3.dev88

  ==> Input File <==

--------------------------------------------------------------------------
# Any line starting with the # character is a comment line
memory 250000 mb
molecule molecule{
0 1
S          0.0000000000        0.0000000000        0.3640837090
O          0.0000000000       -1.2543541245       -0.3647800452
O          0.0000000000        1.2543541245       -0.3647800452
}

set {
  reference rhf
  basis aug-cc-pV(5+d)Z
  scf_type OUT_OF_CORE
  freeze_core true
}

energy('ccsd(t)')
--------------------------------------------------------------------------

    Molecular point group: c2v

    Geometry (in Angstrom), charge = 0, multiplicity = 1:

       Center              X                  Y                   Z               Mass
    ------------   -----------------  -----------------  -----------------  -----------------
         S            0.000000000000     0.000000000000     0.364533056159    31.972071174400
         O            0.000000000000    -1.254354124500    -0.364330698041    15.994914619570
         O           -0.000000000000     1.254354124500    -0.364330698041    15.994914619570

  Charge       = 0
  Multiplicity = 1
  Basis Set: AUG-CC-PV(5+D)Z
    Blend: AUG-CC-PV(5+D)Z

    Orbital Energies [Eh]
    ---------------------

    Doubly Occupied:

       1A1   -92.177236     1B2   -20.628012     2A1   -20.627985
       3A1    -9.155898     1B1    -6.838035     2B2    -6.836636
       4A1    -6.835623     5A1    -1.492530     3B2    -1.394025
       6A1    -0.873387     4B2    -0.698347     7A1    -0.688804
       2B1    -0.658465     5B2    -0.544323     1A2    -0.520674
       8A1    -0.498537

  @RHF Final Energy:  -547.32076346300380

   => Energetics <=

    Nuclear Repulsion Energy =            106.8794034402355493
    One-Electron Energy =                -967.4633005604393929
    Two-Electron Energy =                 313.2631336572000578
    Total Energy =                       -547.3207634630036864

  Dipole Moment: [D]
     X:     0.0000      Y:     0.0000      Z:     2.0630     Total:     2.0630

      * MP2 total energy                      = -548.062805082948785
      * CCSD total energy                     = -548.041211734283934
      * CCSD(T) total energy                  = -548.081757718727658
*** Psi4 exiting successfully. Buy a developer a beer!
