                               Psi4 1.4a3.dev88

  ==> Input File <==

--------------------------------------------------------------------------
# Any line starting with the # character is a comment line
memory 250000 mb
molecule molecule{
0 1
S          0.0000000000        0.0000000000        0.3640837090
O          0.0000000000       -1.2543541245       -0.3647800452
O          0.0000000000        1.2543541245       -0.3647800452
}

set {
  reference rhf
  basis aug-cc-pV(t+d)Z
  scf_type OUT_OF_CORE
  freeze_core true
  DOCC [     8,    1,    2,    5 ]
}

energy('ccsd(t)')
--------------------------------------------------------------------------

    Molecular point group: c2v

    Geometry (in Angstrom), charge = 0, multiplicity = 1:

       Center              X                  Y                   Z               Mass
    ------------   -----------------  -----------------  -----------------  -----------------
         S            0.000000000000     0.000000000000     0.364533056159    31.972071174400
         O            0.000000000000    -1.254354124500    -0.364330698041    15.994914619570
         O           -0.000000000000     1.254354124500    -0.364330698041    15.994914619570

  Charge       = 0
  Multiplicity = 1
  Basis Set: AUG-CC-PV(T+D)Z
    Blend: AUG-CC-PV(T+D)Z

    Orbital Energies [Eh]
    ---------------------

    Doubly Occupied:

       1A1   -92.182074     1B2   -20.632253     2A1   -20.632226
       3A1    -9.158774     1B1    -6.840477     2B2    -6.839428
       4A1    -6.837868     5A1    -1.494285     3B2    -1.395796
       6A1    -0.874217     4B2    -0.698853     7A1    -0.689183
       2B1    -0.658783     5B2    -0.544335     1A2    -0.520697
       8A1    -0.498377

  @RHF Final Energy:  -547.30228759866043

   => Energetics <=

    Nuclear Repulsion Energy =            106.8794034402355493
    One-Electron Energy =                -967.3681275085882589
    Two-Electron Energy =                 313.1864364696921825
    Total Energy =                       -547.3022875986605413

  Dipole Moment: [D]
     X:     0.0000      Y:     0.0000      Z:     2.0646     Total:     2.0646

      * MP2 total energy                      = -547.979803284671789
      * CCSD total energy                     = -547.969333170739219
      * CCSD(T) total energy                  = -548.006119374502646
*** Psi4 exiting successfully. Buy a developer a beer!
