                               Psi4 1.4a3.dev88

  ==> Input File <==

--------------------------------------------------------------------------
# Any line starting with the # character is a comment line
memory 250000 mb
molecule molecule{
0 1
S          0.0000000000        0.0000000000        0.3640837090
O          0.0000000000       -1.2543541245       -0.3647800452
O          0.0000000000        1.2543541245       -0.3647800452
}

set {
  reference rhf
  basis aug-cc-pV(d+d)Z
  scf_type OUT_OF_CORE
  freeze_core true
  DOCC [     8,    1,    2,    5 ]
}

energy('ccsd(t)')
--------------------------------------------------------------------------

    Molecular point group: c2v

    Geometry (in Angstrom), charge = 0, multiplicity = 1:

       Center              X                  Y                   Z               Mass
    ------------   -----------------  -----------------  -----------------  -----------------
         S            0.000000000000     0.000000000000     0.364533056159    31.972071174400
         O            0.000000000000    -1.254354124500    -0.364330698041    15.994914619570
         O           -0.000000000000     1.254354124500    -0.364330698041    15.994914619570

  Charge       = 0
  Multiplicity = 1
  Basis Set: AUG-CC-PV(D+D)Z
    Blend: AUG-CC-PV(D+D)Z

    Orbital Energies [Eh]
    ---------------------

    Doubly Occupied:

       1A1   -92.197563     1B2   -20.641941     2A1   -20.641914
       3A1    -9.173903     2B2    -6.856494     1B1    -6.855010
       4A1    -6.852733     5A1    -1.502720     3B2    -1.403255
       6A1    -0.879159     4B2    -0.702882     7A1    -0.692464
       2B1    -0.661586     5B2    -0.542996     1A2    -0.520006
       8A1    -0.496953

  @RHF Final Energy:  -547.23360442671276

   => Energetics <=

    Nuclear Repulsion Energy =            106.8794034402355493
    One-Electron Energy =                -966.9828596966040095
    Two-Electron Energy =                 312.8698518296556585
    Total Energy =                       -547.2336044267127591

  Dipole Moment: [D]
     X:     0.0000      Y:     0.0000      Z:     2.0557     Total:     2.0557

      * MP2 total energy                      = -547.793481454374842
      * CCSD total energy                     = -547.788553636514166
      * CCSD(T) total energy                  = -547.814521510380246
*** Psi4 exiting successfully. Buy a developer a beer!
