                               Psi4 1.4a3.dev88

  ==> Input File <==

--------------------------------------------------------------------------
# Any line starting with the # character is a comment line
memory 250000 mb
molecule molecule{
0 3
O          0.0000000000        0.0000000000        0.0000000000
}

set {
  reference uhf
  basis aug-cc-pV(6+d)Z
  scf_type OUT_OF_CORE
  freeze_core true
}

energy('ccsd(t)')
--------------------------------------------------------------------------

    Molecular point group: d2h
    Geometry (in Angstrom), charge = 0, multiplicity = 3:

       Center              X                  Y                   Z               Mass
    ------------   -----------------  -----------------  -----------------  -----------------
         O            0.000000000000     0.000000000000     0.000000000000    15.994914619570

  Charge       = 0
  Multiplicity = 3
  Basis Set: AUG-CC-PV(6+D)Z
    Blend: AUG-CC-PV(6+D)Z

    Orbital Energies [Eh]
    ---------------------

    Alpha Occupied:

       1Ag   -20.707503     2Ag    -1.418291     1B2u   -0.711064
       1B3u   -0.711064     1B1u   -0.611621

    Alpha Virtual:

       2B2u    0.077642     2B3u    0.077642     2B1u    0.081342
       3Ag     0.103152     1B1g    0.341863     4Ag     0.341863
       3B2u    0.343186     3B3u    0.343186     1B2g    0.349267
       1B3g    0.349267     5Ag     0.351835     3B1u    0.359091
       6Ag     0.575171     4B3u    0.781428     4B2u    0.781428
       1Au     0.789066     4B1u    0.789066     5B2u    0.793710
       5B3u    0.793710     5B1u    0.795275     2B1g    1.031534
       7Ag     1.031534     2B2g    1.056068     2B3g    1.056068
       8Ag     1.064830     6B2u    1.089678     6B3u    1.089678
       6B1u    1.127075     3B1g    2.014230     9Ag     2.014230
       3B3g    2.025771     3B2g    2.025771    10Ag     2.034162
       4B1g    2.034162     4B3g    2.039261     4B2g    2.039261
      11Ag     2.040968    12Ag     2.048966     7B2u    2.238034
       7B3u    2.238034     2Au     2.259341     7B1u    2.259341
       8B2u    2.272250     8B3u    2.272250     8B1u    2.276592
       5B1g    2.524058    13Ag     2.524058     5B2g    2.568812
       5B3g    2.568812    14Ag     2.584672     9B3u    2.971037
       9B2u    2.971037     9B1u    3.031233    10B2u    4.379444
      10B3u    4.379444    10B1u    4.394396     3Au     4.394396
      11B3u    4.406136    11B2u    4.406136    11B1u    4.414584
       4Au     4.414584    12B3u    4.419678    12B2u    4.419678
      12B1u    4.421380    13B3u    5.313113    13B2u    5.313113
       5Au     5.351027    13B1u    5.351027     6B1g    5.358065
      15Ag     5.358065    14B3u    5.374023    14B2u    5.374023
      14B1u    5.381740     6B3g    5.383504     6B2g    5.383504
       7B1g    5.401890    16Ag     5.401890     7B3g    5.413020
       7B2g    5.413020    17Ag     5.416748     8B1g    5.941761
      18Ag     5.941761     8B3g    5.999448     8B2g    5.999448
      19Ag     6.019472    20Ag     6.274490    15B3u    7.612430
      15B2u    7.612430    15B1u    7.687673     9B1g    9.295959
      21Ag     9.295959     9B2g    9.314899     9B3g    9.314899
      10B1g    9.330506    22Ag     9.330506    10B3g    9.342714
      10B2g    9.342714    23Ag     9.351473    11B1g    9.351473
      11B2g    9.356743    11B3g    9.356743    24Ag     9.358503
      16B3u   10.706932    16B2u   10.706932     6Au    10.733803
      16B1u   10.733803    17B3u   10.754874    17B2u   10.754874
      17B1u   10.770018     7Au    10.770018    18B3u   10.779142
      18B2u   10.779142    18B1u   10.782190    19B3u   12.130485
      19B2u   12.130485    19B1u   12.179560     8Au    12.179560
      20B3u   12.209283    20B2u   12.209283    20B1u   12.219241
      12B1g   12.863780    25Ag    12.863780    12B3g   12.902364
      12B2g   12.902364    26Ag    12.930093    13B1g   12.930093
      13B3g   12.946805    13B2g   12.946805    27Ag    12.952390
      14B1g   14.127859    28Ag    14.127859    14B3g   14.189712
      14B2g   14.189712    29Ag    14.210847    30Ag    19.668674
      21B3u   22.333330    21B2u   22.333330    21B1u   22.395940
      15B1g   22.609327    31Ag    22.609327    15B2g   22.637882
      15B3g   22.637882    16B1g   22.661370    32Ag    22.661370
      16B3g   22.679718    16B2g   22.679718    33Ag    22.692866
      17B1g   22.692866    17B2g   22.700772    17B3g   22.700772
      34Ag    22.703410    22B2u   26.670189    22B3u   26.670189
      22B1u   26.706037     9Au    26.706037    23B2u   26.734047
      23B3u   26.734047    10Au    26.754123    23B1u   26.754123
      24B2u   26.766196    24B3u   26.766196    24B1u   26.770225
      25B3u   28.317992    25B2u   28.317992    25B1u   28.366265
      11Au    28.366265    26B3u   28.395413    26B2u   28.395413
      26B1u   28.405162    35Ag    31.333436    18B1g   31.333436
      18B2g   31.375308    18B3g   31.375308    36Ag    31.405345
      19B1g   31.405345    19B2g   31.423419    19B3g   31.423419
      37Ag    31.429453    20B1g   34.377623    38Ag    34.377623
      20B3g   34.429911    20B2g   34.429911    39Ag    34.447577
      40Ag    99.373997

    Beta Occupied:

       1Ag   -20.629211     2Ag    -1.075548     1B1u   -0.521685

    Beta Virtual:

       1B3u    0.050753     1B2u    0.050753     2B1u    0.082443
       3Ag     0.110176     2B2u    0.126234     2B3u    0.126234
       4Ag     0.349383     1B1g    0.349383     1B3g    0.352024
       1B2g    0.352024     5Ag     0.353068     3B1u    0.367717
       3B2u    0.420156     3B3u    0.420156     6Ag     0.607319
       4B2u    0.786121     4B3u    0.786121     1Au     0.791633
       4B1u    0.791633     5B3u    0.794956     5B2u    0.794956
       5B1u    0.796065     7Ag     1.084976     2B3g    1.086328
       2B2g    1.086328     2B1g    1.092486     8Ag     1.092486
       6B1u    1.148688     6B2u    1.200151     6B3u    1.200151
       3B1g    2.023095     9Ag     2.023095     3B3g    2.031876
       3B2g    2.031876    10Ag     2.038171     4B1g    2.038171
       4B3g    2.041952     4B2g    2.041952    11Ag     2.043212
      12Ag     2.113191     7B2u    2.271039     7B3u    2.271039
       2Au     2.280763     7B1u    2.280763     8B2u    2.286534
       8B3u    2.286534     8B1u    2.288447    13Ag     2.638757
       5B2g    2.641971     5B3g    2.641971     5B1g    2.654572
      14Ag     2.654572     9B1u    3.062704     9B3u    3.091083
       9B2u    3.091083    10B2u    4.392728    10B3u    4.392728
      10B1u    4.404599     3Au     4.404599    11B3u    4.413876
      11B2u    4.413876    11B1u    4.420527     4Au     4.420527
      12B2u    4.424527    12B3u    4.424527    12B1u    4.425862
      13B3u    5.389072    13B2u    5.389072     6B1g    5.394882
      15Ag     5.394882     5Au     5.403935    13B1u    5.403935
       6B2g    5.411061     6B3g    5.411061    14B3u    5.412788
      14B2u    5.412788    14B1u    5.415729     7B1g    5.422588
      16Ag     5.422588     7B3g    5.429483     7B2g    5.429483
      17Ag     5.431778    18Ag     6.084307     8B1g    6.084533
      19Ag     6.084533     8B3g    6.084579     8B2g    6.084579
      20Ag     6.352374    15B3u    7.721173    15B2u    7.721173
      15B1u    7.723329     9B1g    9.315571    21Ag     9.315571
       9B2g    9.330998     9B3g    9.330998    10B1g    9.343678
      22Ag     9.343678    10B3g    9.353578    10B2g    9.353578
      23Ag     9.360670    11B1g    9.360670    11B2g    9.364933
      11B3g    9.364933    24Ag     9.366356    16B3u   10.743212
      16B2u   10.743212     6Au    10.762976    16B1u   10.762976
      17B3u   10.778421    17B2u   10.778421     7Au    10.789493
      17B1u   10.789493    18B3u   10.796151    18B2u   10.796151
      18B1u   10.798374    19B3u   12.224448    19B2u   12.224448
      19B1u   12.247396     8Au    12.247396    20B3u   12.261191
      20B2u   12.261191    20B1u   12.265794    25Ag    12.929554
      12B1g   12.929554    12B3g   12.953482    12B2g   12.953482
      26Ag    12.970569    13B1g   12.970569    13B2g   12.980818
      13B3g   12.980818    27Ag    12.984234    14B1g   14.239543
      28Ag    14.239543    14B3g   14.258689    14B2g   14.258689
      29Ag    14.265187    30Ag    19.726848    21B3u   22.405223
      21B2u   22.405223    21B1u   22.422311    15B1g   22.647236
      31Ag    22.647236    15B2g   22.669871    15B3g   22.669871
      16B1g   22.688468    32Ag    22.688468    16B3g   22.702982
      16B2g   22.702982    33Ag    22.713375    17B1g   22.713375
      17B2g   22.719621    17B3g   22.719621    34Ag    22.721705
      22B2u   26.724874    22B3u   26.724874    22B1u   26.751098
       9Au    26.751098    23B2u   26.771569    23B3u   26.771569
      10Au    26.786231    23B1u   26.786231    24B2u   26.795044
      24B3u   26.795044    24B1u   26.797984    25B3u   28.395534
      25B2u   28.395534    25B1u   28.423211    11Au    28.423211
      26B3u   28.439886    26B2u   28.439886    26B1u   28.445455
      35Ag    31.399727    18B1g   31.399727    18B2g   31.427809
      18B3g   31.427809    36Ag    31.447921    19B1g   31.447921
      19B2g   31.460010    19B3g   31.460010    37Ag    31.464043
      20B1g   34.445647    38Ag    34.445647    20B3g   34.472756
      20B2g   34.472756    39Ag    34.481886    40Ag    99.394407

    Final Occupation by Irrep:
             Ag   B1g   B2g   B3g    Au   B1u   B2u   B3u
    DOCC [     2,    0,    0,    0,    0,    1,    0,    0 ]
    SOCC [     0,    0,    0,    0,    0,    0,    1,    1 ]

  @UHF Final Energy:   -74.81896136915017

   => Energetics <=

    Nuclear Repulsion Energy =              0.0000000000000000
    One-Electron Energy =                -103.2519331333057835
    Two-Electron Energy =                  28.4329717641556101
    Total Energy =                        -74.8189613691501734

  UHF NO Occupations:
  HONO-2 :    2 Ag 1.9970253
  HONO-1 :    1B2u 1.0000000
  HONO-0 :    1B3u 1.0000000
  LUNO+0 :    3 Ag 0.0029747
  LUNO+1 :    2B1u 0.0017167
  LUNO+2 :    4 Ag 0.0000027
  LUNO+3 :    5 Ag 0.0000000

Computation Completed

Properties will be evaluated at   0.000000,   0.000000,   0.000000 [a0]

Properties computed using the SCF density matrix

  Nuclear Dipole Moment: [e a0]
     X:     0.0000      Y:     0.0000      Z:     0.0000

  Electronic Dipole Moment: [e a0]
     X:     0.0000      Y:     0.0000      Z:     0.0000

  Dipole Moment: [e a0]
     X:     0.0000      Y:     0.0000      Z:     0.0000     Total:     0.0000

  Dipole Moment: [D]
     X:     0.0000      Y:     0.0000      Z:     0.0000     Total:     0.0000

*** tstop() called on n411-011.vsc4.prov at Thu Jan 21 14:16:09 2021
Module time:
	user time   =     113.03 seconds =       1.88 minutes
	system time =       3.20 seconds =       0.05 minutes
	total time  =        104 seconds =       1.73 minutes
Total time:
	user time   =     113.03 seconds =       1.88 minutes
	system time =       3.20 seconds =       0.05 minutes
	total time  =        104 seconds =       1.73 minutes

*** tstart() called on n411-011.vsc4.prov
*** at Thu Jan 21 14:16:09 2021

	Wfn Parameters:
	--------------------
	Wavefunction         = CCSD_T
	Number of irreps     = 8
	Number of MOs        = 189
	Number of active MOs = 188
	AO-Basis             = NONE
	Semicanonical        = false
	Reference            = UHF
	Print Level          = 1

	IRREP	# MOs	# FZDC	# DOCC	# SOCC	# VIRT	# FZVR
	-----	-----	------	------	------	------	------
	 Ag	   40	    1	    1	    0	    38	    0
	 B1g	   20	    0	    0	    0	    20	    0
	 B2g	   20	    0	    0	    0	    20	    0
	 B3g	   20	    0	    0	    0	    20	    0
	 Au	   11	    0	    0	    0	    11	    0
	 B1u	   26	    0	    1	    0	    25	    0
	 B2u	   26	    0	    0	    1	    25	    0
	 B3u	   26	    0	    0	    1	    25	    0
	Transforming integrals...
	IWL integrals will be deleted.
	(OO|OO)...
	Presorting SO-basis two-electron integrals.
	Sorting File: SO Ints (nn|nn) nbuckets = 1
	Constructing frozen core operators
	Starting AA/AB first half-transformation.
	Sorting AA/AB half-transformed integrals.
	Starting BB first half-transformation.
	Sorting BB half-transformed integrals.
	First half integral transformation complete.
	Starting AA second half-transformation.
	Starting AB second half-transformation.
	Starting BB second half-transformation.
	Two-electron integral transformation complete.
	(OO|OV)...
	Starting AA second half-transformation.
	Starting AB second half-transformation.
	Starting BB second half-transformation.
	Two-electron integral transformation complete.
	(OO|VV)...
	Starting AA second half-transformation.
	Starting AB second half-transformation.
	Starting BB second half-transformation.
	Two-electron integral transformation complete.
	(OV|OO)...
	Starting AA/AB first half-transformation.
	Sorting AA/AB half-transformed integrals.
	Starting BB first half-transformation.
	Sorting BB half-transformed integrals.
	First half integral transformation complete.
	Starting AA second half-transformation.
	Starting AB second half-transformation.
	Starting BB second half-transformation.
	Two-electron integral transformation complete.
	(OV|OV)...
	Starting AA second half-transformation.
	Starting AB second half-transformation.
	Starting BB second half-transformation.
	Two-electron integral transformation complete.
	(OV|VV)...
	Starting AA second half-transformation.
	Starting AB second half-transformation.
	Starting BB second half-transformation.
	Two-electron integral transformation complete.
	(VV|OO)...
	Starting AA/AB first half-transformation.
	Sorting AA/AB half-transformed integrals.
	Starting BB first half-transformation.
	Sorting BB half-transformed integrals.
	First half integral transformation complete.
	Starting AA second half-transformation.
	Starting AB second half-transformation.
	Starting BB second half-transformation.
	Two-electron integral transformation complete.
	(VV|OV)...
	Starting AA second half-transformation.
	Starting AB second half-transformation.
	Starting BB second half-transformation.
	Two-electron integral transformation complete.
	(VV|VV)...
	Starting AA second half-transformation.
	Starting AB second half-transformation.
	Starting BB second half-transformation.
	Two-electron integral transformation complete.
	Frozen core energy     =    -59.10680706481853

	Size of irrep 0 of <AB|CD> integrals:      4.964 (MW) /     39.712 (MB)
	Size of irrep 1 of <AB|CD> integrals:      4.244 (MW) /     33.949 (MB)
	Size of irrep 2 of <AB|CD> integrals:      4.244 (MW) /     33.949 (MB)
	Size of irrep 3 of <AB|CD> integrals:      4.244 (MW) /     33.949 (MB)
	Size of irrep 4 of <AB|CD> integrals:      3.679 (MW) /     29.430 (MB)
	Size of irrep 5 of <AB|CD> integrals:      4.709 (MW) /     37.671 (MB)
	Size of irrep 6 of <AB|CD> integrals:      4.709 (MW) /     37.671 (MB)
	Size of irrep 7 of <AB|CD> integrals:      4.709 (MW) /     37.671 (MB)
	Total:                                    35.500 (MW) /    284.002 (MB)

	Size of irrep 0 of <ab|cd> integrals:      5.189 (MW) /     41.514 (MB)
	Size of irrep 1 of <ab|cd> integrals:      4.456 (MW) /     35.651 (MB)
	Size of irrep 2 of <ab|cd> integrals:      4.393 (MW) /     35.146 (MB)
	Size of irrep 3 of <ab|cd> integrals:      4.393 (MW) /     35.146 (MB)
	Size of irrep 4 of <ab|cd> integrals:      3.834 (MW) /     30.670 (MB)
	Size of irrep 5 of <ab|cd> integrals:      4.884 (MW) /     39.073 (MB)
	Size of irrep 6 of <ab|cd> integrals:      4.964 (MW) /     39.712 (MB)
	Size of irrep 7 of <ab|cd> integrals:      4.964 (MW) /     39.712 (MB)
	Total:                                    37.078 (MW) /    296.623 (MB)

	Size of irrep 0 of <Ab|Cd> integrals:     21.996 (MW) /    175.969 (MB)
	Size of irrep 1 of <Ab|Cd> integrals:     17.389 (MW) /    139.111 (MB)
	Size of irrep 2 of <Ab|Cd> integrals:     17.272 (MW) /    138.179 (MB)
	Size of irrep 3 of <Ab|Cd> integrals:     17.272 (MW) /    138.179 (MB)
	Size of irrep 4 of <Ab|Cd> integrals:     15.023 (MW) /    120.187 (MB)
	Size of irrep 5 of <Ab|Cd> integrals:     19.184 (MW) /    153.475 (MB)
	Size of irrep 6 of <Ab|Cd> integrals:     19.342 (MW) /    154.739 (MB)
	Size of irrep 7 of <Ab|Cd> integrals:     19.342 (MW) /    154.739 (MB)
	Total:                                   146.822 (MW) /   1174.578 (MB)

	Size of irrep 0 of <IA|BC> integrals:      0.524 (MW) /      4.195 (MB)
	Size of irrep 1 of <IA|BC> integrals:      0.334 (MW) /      2.670 (MB)
	Size of irrep 2 of <IA|BC> integrals:      0.334 (MW) /      2.670 (MB)
	Size of irrep 3 of <IA|BC> integrals:      0.334 (MW) /      2.670 (MB)
	Size of irrep 4 of <IA|BC> integrals:      0.272 (MW) /      2.179 (MB)
	Size of irrep 5 of <IA|BC> integrals:      0.447 (MW) /      3.576 (MB)
	Size of irrep 6 of <IA|BC> integrals:      0.447 (MW) /      3.576 (MB)
	Size of irrep 7 of <IA|BC> integrals:      0.447 (MW) /      3.576 (MB)
	Total:                                     3.139 (MW) /     25.111 (MB)

	Size of irrep 0 of <ia|bc> integrals:      0.299 (MW) /      2.390 (MB)
	Size of irrep 1 of <ia|bc> integrals:      0.131 (MW) /      1.047 (MB)
	Size of irrep 2 of <ia|bc> integrals:      0.193 (MW) /      1.543 (MB)
	Size of irrep 3 of <ia|bc> integrals:      0.193 (MW) /      1.543 (MB)
	Size of irrep 4 of <ia|bc> integrals:      0.121 (MW) /      0.971 (MB)
	Size of irrep 5 of <ia|bc> integrals:      0.278 (MW) /      2.228 (MB)
	Size of irrep 6 of <ia|bc> integrals:      0.205 (MW) /      1.640 (MB)
	Size of irrep 7 of <ia|bc> integrals:      0.205 (MW) /      1.640 (MB)
	Total:                                     1.625 (MW) /     13.001 (MB)

	Size of irrep 0 of <Ia|Bc> integrals:      0.539 (MW) /      4.315 (MB)
	Size of irrep 1 of <Ia|Bc> integrals:      0.346 (MW) /      2.769 (MB)
	Size of irrep 2 of <Ia|Bc> integrals:      0.341 (MW) /      2.726 (MB)
	Size of irrep 3 of <Ia|Bc> integrals:      0.341 (MW) /      2.726 (MB)
	Size of irrep 4 of <Ia|Bc> integrals:      0.275 (MW) /      2.202 (MB)
	Size of irrep 5 of <Ia|Bc> integrals:      0.451 (MW) /      3.609 (MB)
	Size of irrep 6 of <Ia|Bc> integrals:      0.457 (MW) /      3.659 (MB)
	Size of irrep 7 of <Ia|Bc> integrals:      0.457 (MW) /      3.659 (MB)
	Total:                                     3.208 (MW) /     25.665 (MB)

	Size of irrep 0 of <iA|bC> integrals:      0.295 (MW) /      2.364 (MB)
	Size of irrep 1 of <iA|bC> integrals:      0.129 (MW) /      1.034 (MB)
	Size of irrep 2 of <iA|bC> integrals:      0.187 (MW) /      1.496 (MB)
	Size of irrep 3 of <iA|bC> integrals:      0.187 (MW) /      1.496 (MB)
	Size of irrep 4 of <iA|bC> integrals:      0.120 (MW) /      0.961 (MB)
	Size of irrep 5 of <iA|bC> integrals:      0.276 (MW) /      2.208 (MB)
	Size of irrep 6 of <iA|bC> integrals:      0.198 (MW) /      1.583 (MB)
	Size of irrep 7 of <iA|bC> integrals:      0.198 (MW) /      1.583 (MB)
	Total:                                     1.591 (MW) /     12.726 (MB)

	Size of irrep 0 of tIjAb amplitudes:       0.009 (MW) /      0.075 (MB)
	Size of irrep 1 of tIjAb amplitudes:       0.000 (MW) /      0.000 (MB)
	Size of irrep 2 of tIjAb amplitudes:       0.004 (MW) /      0.033 (MB)
	Size of irrep 3 of tIjAb amplitudes:       0.004 (MW) /      0.033 (MB)
	Size of irrep 4 of tIjAb amplitudes:       0.000 (MW) /      0.000 (MB)
	Size of irrep 5 of tIjAb amplitudes:       0.009 (MW) /      0.070 (MB)
	Size of irrep 6 of tIjAb amplitudes:       0.004 (MW) /      0.035 (MB)
	Size of irrep 7 of tIjAb amplitudes:       0.004 (MW) /      0.035 (MB)
	Total:                                     0.035 (MW) /      0.282 (MB)

	Nuclear Rep. energy          =      0.00000000000000
	SCF energy                   =    -74.81896136915017
	One-electron energy          =    -26.37503314831308
	Two-electron (AA) energy     =      3.99042380246522
	Two-electron (BB) energy     =      0.58787559592485
	Two-electron (AB) energy     =      6.08457944559139
	Two-electron energy          =     10.66287884398145
	Reference energy             =    -74.81896136915016

*** tstop() called on n411-011.vsc4.prov at Thu Jan 21 14:17:13 2021
Module time:
	user time   =      16.86 seconds =       0.28 minutes
	system time =      12.17 seconds =       0.20 minutes
	total time  =         64 seconds =       1.07 minutes
Total time:
	user time   =     129.89 seconds =       2.16 minutes
	system time =      15.37 seconds =       0.26 minutes
	total time  =        168 seconds =       2.80 minutes
            **************************
            *                        *
            *        CCENERGY        *
            *                        *
            **************************

    Nuclear Rep. energy (wfn)     =    0.000000000000000
    SCF energy          (wfn)     =  -74.818961369150173
    Reference energy    (file100) =  -74.818961369150159

    Input parameters:
    -----------------
    Wave function   =     CCSD_T
    Reference wfn   =     UHF

      * MP2 total energy                      =  -74.985835737064917
      * CCSD total energy                     =  -74.998454626928989
      * CCSD(T) total energy                     =  -75.002568934340999
*** Psi4 exiting successfully. Buy a developer a beer!
