                               Psi4 1.2a1.dev938

  ==> Input File <==

--------------------------------------------------------------------------
# Any line starting with the # character is a comment line
memory 250000 mb
molecule molecule{
-1 2
O          0.0000000000        0.0000000000        0.0000000000
}

set {
  reference uhf
  basis aug-cc-pv(d+d)z
  scf_type OUT_OF_CORE
  freeze_core true
}

energy('ccsd')
--------------------------------------------------------------------------

    Molecular point group: d2h
    Geometry (in Angstrom), charge = -1, multiplicity = 2:

       Center              X                  Y                   Z               Mass
    ------------   -----------------  -----------------  -----------------  -----------------
           O          0.000000000000     0.000000000000     0.000000000000    15.994914619560

  Charge       = -1
  Multiplicity = 2
  Basis Set: AUG-CC-PV(D+D)Z
    Blend: AUG-CC-PV(D+D)Z

    Orbital Energies (a.u.)
    -----------------------

    Alpha Occupied:

       1Ag   -20.236740     2Ag    -0.911338     1B3u   -0.235136
       1B1u   -0.143642     1B2u   -0.143642

    Alpha Virtual:

       2B3u    0.418979     2B1u    0.437878     2B2u    0.437878
       3Ag     0.452796     4Ag     1.285941     1B2g    1.295724
       1B1g    1.295724     5Ag     1.325468     1B3g    1.325468
       3B3u    1.645972     3B1u    1.706184     3B2u    1.706184
       6Ag     2.132584     7Ag     3.864164     2B2g    3.882099
       2B1g    3.882099     2B3g    3.939012     8Ag     3.939012

    Beta Occupied:

       1Ag   -20.195301     2Ag    -0.733121     1B1u   -0.079050
       1B2u   -0.079050

    Beta Virtual:

       1B3u    0.354847     2B1u    0.447764     2B2u    0.447764
       3Ag     0.460243     2B3u    0.600601     1B3g    1.323841
       4Ag     1.323841     1B2g    1.335421     1B1g    1.335421
       5Ag     1.340264     3B1u    1.740300     3B2u    1.740300
       3B3u    1.825221     6Ag     2.184005     2B3g    3.966263
       7Ag     3.966263     2B2g    3.982946     2B1g    3.982946
       8Ag     3.989331

    Final Occupation by Irrep:
             Ag   B1g   B2g   B3g    Au   B1u   B2u   B3u
    DOCC [     2,    0,    0,    0,    0,    1,    1,    0 ]
    SOCC [     0,    0,    0,    0,    0,    0,    0,    1 ]

  Energy converged.

  @UHF Final Energy:   -74.77737382798647

   => Energetics <=

    Nuclear Repulsion Energy =              0.0000000000000000
    One-Electron Energy =                -106.7977281342003693
    Two-Electron Energy =                  32.0203543062139033
    Total Energy =                        -74.7773738279864659

  UHF NO Occupations:
  HONO-2 :    1B2u 1.9962840
  HONO-1 :    1B1u 1.9962840
  HONO-0 :    1B3u 1.0000000
  LUNO+0 :    2B2u 0.0037160
  LUNO+1 :    2B1u 0.0037160
  LUNO+2 :    3 Ag 0.0018700
  LUNO+3 :    4 Ag 0.0000004

Properties will be evaluated at   0.000000,   0.000000,   0.000000 Bohr

Properties computed using the SCF density matrix

  Nuclear Dipole Moment: (a.u.)
     X:     0.0000      Y:     0.0000      Z:     0.0000

  Electronic Dipole Moment: (a.u.)
     X:     0.0000      Y:     0.0000      Z:     0.0000

  Dipole Moment: (a.u.)
     X:     0.0000      Y:     0.0000      Z:     0.0000     Total:     0.0000

  Dipole Moment: (Debye)
     X:     0.0000      Y:     0.0000      Z:     0.0000     Total:     0.0000

*** tstop() called on cqc05 at Thu Aug 20 19:56:33 2020
Module time:
	user time   =       0.24 seconds =       0.00 minutes
	system time =       0.01 seconds =       0.00 minutes
	total time  =          0 seconds =       0.00 minutes
Total time:
	user time   =       0.24 seconds =       0.00 minutes
	system time =       0.01 seconds =       0.00 minutes
	total time  =          0 seconds =       0.00 minutes

*** tstart() called on cqc05
*** at Thu Aug 20 19:56:33 2020

	Wfn Parameters:
	--------------------
	Wavefunction         = CCSD
	Number of irreps     = 8
	Number of MOs        = 23
	Number of active MOs = 22
	AO-Basis             = NONE
	Semicanonical        = false
	Reference            = UHF
	Print Level          = 1

	IRREP	# MOs	# FZDC	# DOCC	# SOCC	# VIRT	# FZVR
	-----	-----	------	------	------	------	------
	 Ag	   8	    1	    1	    0	    6	    0
	 B1g	   2	    0	    0	    0	    2	    0
	 B2g	   2	    0	    0	    0	    2	    0
	 B3g	   2	    0	    0	    0	    2	    0
	 Au	   0	    0	    0	    0	    0	    0
	 B1u	   3	    0	    1	    0	    2	    0
	 B2u	   3	    0	    1	    0	    2	    0
	 B3u	   3	    0	    0	    1	    2	    0
	Transforming integrals...
	IWL integrals will be deleted.
	(OO|OO)...
	Presorting SO-basis two-electron integrals.
	Sorting File: SO Ints (nn|nn) nbuckets = 1
	Transforming the one-electron integrals and constructing Fock matrices
	Starting AA/AB first half-transformation.
	Sorting AA/AB half-transformed integrals.
	Starting BB first half-transformation.
	Sorting BB half-transformed integrals.
	First half integral transformation complete.
	Starting AA second half-transformation.
	Starting AB second half-transformation.
	Starting BB second half-transformation.
	Two-electron integral transformation complete.
	(OO|OV)...
	Starting AA second half-transformation.
	Starting AB second half-transformation.
	Starting BB second half-transformation.
	Two-electron integral transformation complete.
	(OO|VV)...
	Starting AA second half-transformation.
	Starting AB second half-transformation.
	Starting BB second half-transformation.
	Two-electron integral transformation complete.
	(OV|OO)...
	Starting AA/AB first half-transformation.
	Sorting AA/AB half-transformed integrals.
	Starting BB first half-transformation.
	Sorting BB half-transformed integrals.
	First half integral transformation complete.
	Starting AA second half-transformation.
	Starting AB second half-transformation.
	Starting BB second half-transformation.
	Two-electron integral transformation complete.
	(OV|OV)...
	Starting AA second half-transformation.
	Starting AB second half-transformation.
	Starting BB second half-transformation.
	Two-electron integral transformation complete.
	(OV|VV)...
	Starting AA second half-transformation.
	Starting AB second half-transformation.
	Starting BB second half-transformation.
	Two-electron integral transformation complete.
	(VV|OO)...
	Starting AA/AB first half-transformation.
	Sorting AA/AB half-transformed integrals.
	Starting BB first half-transformation.
	Sorting BB half-transformed integrals.
	First half integral transformation complete.
	Starting AA second half-transformation.
	Starting AB second half-transformation.
	Starting BB second half-transformation.
	Two-electron integral transformation complete.
	(VV|OV)...
	Starting AA second half-transformation.
	Starting AB second half-transformation.
	Starting BB second half-transformation.
	Two-electron integral transformation complete.
	(VV|VV)...
	Starting AA second half-transformation.
	Starting AB second half-transformation.
	Starting BB second half-transformation.
	Two-electron integral transformation complete.
	Frozen core energy     =    -59.10525267295669

	Size of irrep 0 of <AB|CD> integrals:      0.000 (MW) /      0.004 (MB)
	Size of irrep 1 of <AB|CD> integrals:      0.000 (MW) /      0.003 (MB)
	Size of irrep 2 of <AB|CD> integrals:      0.000 (MW) /      0.003 (MB)
	Size of irrep 3 of <AB|CD> integrals:      0.000 (MW) /      0.003 (MB)
	Size of irrep 4 of <AB|CD> integrals:      0.000 (MW) /      0.001 (MB)
	Size of irrep 5 of <AB|CD> integrals:      0.000 (MW) /      0.003 (MB)
	Size of irrep 6 of <AB|CD> integrals:      0.000 (MW) /      0.003 (MB)
	Size of irrep 7 of <AB|CD> integrals:      0.000 (MW) /      0.003 (MB)
	Total:                                     0.003 (MW) /      0.024 (MB)

	Size of irrep 0 of <ab|cd> integrals:      0.001 (MW) /      0.004 (MB)
	Size of irrep 1 of <ab|cd> integrals:      0.000 (MW) /      0.004 (MB)
	Size of irrep 2 of <ab|cd> integrals:      0.000 (MW) /      0.004 (MB)
	Size of irrep 3 of <ab|cd> integrals:      0.000 (MW) /      0.003 (MB)
	Size of irrep 4 of <ab|cd> integrals:      0.000 (MW) /      0.002 (MB)
	Size of irrep 5 of <ab|cd> integrals:      0.000 (MW) /      0.004 (MB)
	Size of irrep 6 of <ab|cd> integrals:      0.000 (MW) /      0.004 (MB)
	Size of irrep 7 of <ab|cd> integrals:      0.001 (MW) /      0.005 (MB)
	Total:                                     0.004 (MW) /      0.030 (MB)

	Size of irrep 0 of <Ab|Cd> integrals:      0.004 (MW) /      0.031 (MB)
	Size of irrep 1 of <Ab|Cd> integrals:      0.002 (MW) /      0.014 (MB)
	Size of irrep 2 of <Ab|Cd> integrals:      0.002 (MW) /      0.014 (MB)
	Size of irrep 3 of <Ab|Cd> integrals:      0.002 (MW) /      0.013 (MB)
	Size of irrep 4 of <Ab|Cd> integrals:      0.001 (MW) /      0.005 (MB)
	Size of irrep 5 of <Ab|Cd> integrals:      0.002 (MW) /      0.014 (MB)
	Size of irrep 6 of <Ab|Cd> integrals:      0.002 (MW) /      0.014 (MB)
	Size of irrep 7 of <Ab|Cd> integrals:      0.002 (MW) /      0.017 (MB)
	Total:                                     0.015 (MW) /      0.122 (MB)

	Size of irrep 0 of <IA|BC> integrals:      0.001 (MW) /      0.006 (MB)
	Size of irrep 1 of <IA|BC> integrals:      0.000 (MW) /      0.002 (MB)
	Size of irrep 2 of <IA|BC> integrals:      0.000 (MW) /      0.002 (MB)
	Size of irrep 3 of <IA|BC> integrals:      0.000 (MW) /      0.002 (MB)
	Size of irrep 4 of <IA|BC> integrals:      0.000 (MW) /      0.001 (MB)
	Size of irrep 5 of <IA|BC> integrals:      0.000 (MW) /      0.004 (MB)
	Size of irrep 6 of <IA|BC> integrals:      0.000 (MW) /      0.004 (MB)
	Size of irrep 7 of <IA|BC> integrals:      0.000 (MW) /      0.004 (MB)
	Total:                                     0.003 (MW) /      0.024 (MB)

	Size of irrep 0 of <ia|bc> integrals:      0.001 (MW) /      0.005 (MB)
	Size of irrep 1 of <ia|bc> integrals:      0.000 (MW) /      0.002 (MB)
	Size of irrep 2 of <ia|bc> integrals:      0.000 (MW) /      0.002 (MB)
	Size of irrep 3 of <ia|bc> integrals:      0.000 (MW) /      0.002 (MB)
	Size of irrep 4 of <ia|bc> integrals:      0.000 (MW) /      0.001 (MB)
	Size of irrep 5 of <ia|bc> integrals:      0.000 (MW) /      0.004 (MB)
	Size of irrep 6 of <ia|bc> integrals:      0.000 (MW) /      0.004 (MB)
	Size of irrep 7 of <ia|bc> integrals:      0.000 (MW) /      0.003 (MB)
	Total:                                     0.003 (MW) /      0.021 (MB)

	Size of irrep 0 of <Ia|Bc> integrals:      0.001 (MW) /      0.006 (MB)
	Size of irrep 1 of <Ia|Bc> integrals:      0.000 (MW) /      0.002 (MB)
	Size of irrep 2 of <Ia|Bc> integrals:      0.000 (MW) /      0.002 (MB)
	Size of irrep 3 of <Ia|Bc> integrals:      0.000 (MW) /      0.002 (MB)
	Size of irrep 4 of <Ia|Bc> integrals:      0.000 (MW) /      0.001 (MB)
	Size of irrep 5 of <Ia|Bc> integrals:      0.001 (MW) /      0.004 (MB)
	Size of irrep 6 of <Ia|Bc> integrals:      0.001 (MW) /      0.004 (MB)
	Size of irrep 7 of <Ia|Bc> integrals:      0.001 (MW) /      0.005 (MB)
	Total:                                     0.003 (MW) /      0.027 (MB)

	Size of irrep 0 of <iA|bC> integrals:      0.001 (MW) /      0.005 (MB)
	Size of irrep 1 of <iA|bC> integrals:      0.000 (MW) /      0.001 (MB)
	Size of irrep 2 of <iA|bC> integrals:      0.000 (MW) /      0.001 (MB)
	Size of irrep 3 of <iA|bC> integrals:      0.000 (MW) /      0.002 (MB)
	Size of irrep 4 of <iA|bC> integrals:      0.000 (MW) /      0.001 (MB)
	Size of irrep 5 of <iA|bC> integrals:      0.000 (MW) /      0.003 (MB)
	Size of irrep 6 of <iA|bC> integrals:      0.000 (MW) /      0.003 (MB)
	Size of irrep 7 of <iA|bC> integrals:      0.000 (MW) /      0.002 (MB)
	Total:                                     0.002 (MW) /      0.019 (MB)

	Size of irrep 0 of tIjAb amplitudes:       0.000 (MW) /      0.001 (MB)
	Size of irrep 1 of tIjAb amplitudes:       0.000 (MW) /      0.000 (MB)
	Size of irrep 2 of tIjAb amplitudes:       0.000 (MW) /      0.000 (MB)
	Size of irrep 3 of tIjAb amplitudes:       0.000 (MW) /      0.001 (MB)
	Size of irrep 4 of tIjAb amplitudes:       0.000 (MW) /      0.000 (MB)
	Size of irrep 5 of tIjAb amplitudes:       0.000 (MW) /      0.001 (MB)
	Size of irrep 6 of tIjAb amplitudes:       0.000 (MW) /      0.001 (MB)
	Size of irrep 7 of tIjAb amplitudes:       0.000 (MW) /      0.000 (MB)
	Total:                                     0.001 (MW) /      0.005 (MB)

	Nuclear Rep. energy          =      0.00000000000000
	SCF energy                   =    -74.77737382798647
	One-electron energy          =    -29.01926305120505
	Two-electron (AA) energy     =      3.59704446785130
	Two-electron (BB) energy     =      1.63390942306089
	Two-electron (AB) energy     =      8.11618800526307
	Two-electron energy          =     13.34714189617526
	Reference energy             =    -74.77737382798648

*** tstop() called on cqc05 at Thu Aug 20 19:56:33 2020
Module time:
	user time   =       0.03 seconds =       0.00 minutes
	system time =       0.03 seconds =       0.00 minutes
	total time  =          0 seconds =       0.00 minutes
Total time:
	user time   =       0.27 seconds =       0.00 minutes
	system time =       0.04 seconds =       0.00 minutes
	total time  =          0 seconds =       0.00 minutes

*** tstart() called on cqc05
*** at Thu Aug 20 19:56:33 2020

            **************************
            *                        *
            *        CCENERGY        *
            *                        *
            **************************

    Nuclear Rep. energy (wfn)     =    0.000000000000000
    SCF energy          (wfn)     =  -74.777373827986466
    Reference energy    (file100) =  -74.777373827986480

    Input parameters:
    -----------------
    Wave function   =     CCSD
    Reference wfn   =     UHF
    Brueckner       =     No
    Memory (Mbytes) =     250000.0
    Maxiter         =     50
    R_Convergence   =     1.0e-07
    E_Convergence   =     1.0e-06
    Restart         =     Yes
    DIIS            =     Yes
    AO Basis        =     NONE
    ABCD            =     NEW
    Cache Level     =     2
    Cache Type      =     LRU
    Print Level     =     1
    Num. of threads =     4
    # Amps to Print =     10
    Print MP2 Amps? =     No
    Analyze T2 Amps =     No
    Print Pair Ener =     No
    Local CC        =     No
    SCS-MP2         =     False
    SCSN-MP2        =     False
    SCS-CCSD        =     False

MP2 correlation energy -0.1762372347728474
                Solving CC Amplitude Equations
                ------------------------------
  Iter             Energy              RMS        T1Diag      D1Diag    New D1Diag    D2Diag
  ----     ---------------------    ---------   ----------  ----------  ----------   --------
     0        -0.176237234772847    0.000e+00    0.000000    0.000000    0.000000    0.000000
     1        -0.179202965299962    8.366e-02    0.028694    0.000000    0.000000    0.000000
     2        -0.184164256480852    2.677e-02    0.027115    0.000000    0.000000    0.000000
     3        -0.186312772482257    1.671e-02    0.034762    0.000000    0.000000    0.000000
     4        -0.186244095760830    5.085e-03    0.036117    0.000000    0.000000    0.000000
     5        -0.186318415772426    2.691e-03    0.036415    0.000000    0.000000    0.000000
     6        -0.186428192287305    9.958e-04    0.036400    0.000000    0.000000    0.000000
     7        -0.186438107118589    2.810e-04    0.036348    0.000000    0.000000    0.000000
     8        -0.186438998070686    1.103e-04    0.036353    0.000000    0.000000    0.000000
     9        -0.186437833882519    4.840e-05    0.036352    0.000000    0.000000    0.000000
    10        -0.186438059262089    1.206e-05    0.036352    0.000000    0.000000    0.000000
    11        -0.186438028528931    4.270e-06    0.036354    0.000000    0.000000    0.000000
    12        -0.186438178511324    1.191e-06    0.036353    0.000000    0.000000    0.000000
    13        -0.186438174920536    5.068e-07    0.036353    0.000000    0.000000    0.000000
    14        -0.186438175764283    1.712e-07    0.036353    0.000000    0.000000    0.000000
    15        -0.186438176376837    5.886e-08    0.036353    0.000000    0.000000    0.000000
    15        -0.186438176376837    5.886e-08    0.036353    0.000000    0.000000    0.000000

    Iterations converged.

    CCSD corr. energy   =   -0.186438176376837
    PPL corr. energy    =    0.035773808409984
    OS PPL corr. energy =    0.029229556440942
    SS PPL corr. energy =    0.006544251969043
    Largest TIA Amplitudes:
              1  12        -0.0502527193
              2  14        -0.0502527193
              3  16        -0.0411943848
              0   0        -0.0135167178
              0   1        -0.0027878932
              0   3        -0.0013876364
              1  13         0.0012017499
              2  15         0.0012017499
              0   4        -0.0006234507
              3  17        -0.0003303529

    Largest Tia Amplitudes:
              1  12        -0.0312530808
              2  14        -0.0312530808
              1  13         0.0102631648
              2  15         0.0102631648
              0   2         0.0073068119
              0   0        -0.0066366019
              0   3        -0.0054714872
              0   5        -0.0040055540

    Largest TIJAB Amplitudes:
      2   1  14  12        -0.0276823114
      3   2  17  15        -0.0255272590
      3   1  17  13        -0.0255272590
      2   1  15  13        -0.0242873542
      3   2  16  14        -0.0240101848
      3   1  16  12        -0.0240101848
      2   1  10   2        -0.0216082965
      3   2  17  14        -0.0199289695
      3   1  17  12        -0.0199289695
      2   1  14  13        -0.0186988789

    Largest Tijab Amplitudes:
      2   1  14  12        -0.0420764558
      2   1  15  13        -0.0227848120
      2   1  10   1        -0.0227669009
      2   1  14  13        -0.0210324769
      2   1  15  12        -0.0210324769
      1   0  17   8         0.0157856138
      2   0  17   6         0.0157856138
      1   0  12   0        -0.0129232677
      2   0  14   0        -0.0129232677
      1   0  13   3         0.0117571056

    Largest TIjAb Amplitudes:
      1   1  12  12        -0.0674297420
      2   2  14  14        -0.0674297420
      1   1  13  13        -0.0500904380
      2   2  15  15        -0.0500904380
      1   2  12  14        -0.0460771191
      2   1  14  12        -0.0460771191

      * MP2 total energy                      =  -74.953611062759322
      * CCSD total energy                     =  -74.963812004363319
*** Psi4 exiting successfully. Buy a developer a beer!
