                               Psi4 1.2a1.dev938

  ==> Input File <==

--------------------------------------------------------------------------
# Any line starting with the # character is a comment line
memory 250000 mb
molecule molecule{
-1 2
O          0.0000000000        0.0000000000        0.0000000000
}

set {
  reference uhf
  basis aug-cc-pv(5+d)z
  scf_type OUT_OF_CORE
  freeze_core true
}

energy('ccsd')
--------------------------------------------------------------------------

    Molecular point group: d2h
    Geometry (in Angstrom), charge = -1, multiplicity = 2:

       Center              X                  Y                   Z               Mass
    ------------   -----------------  -----------------  -----------------  -----------------
           O          0.000000000000     0.000000000000     0.000000000000    15.994914619560

  Charge       = -1
  Multiplicity = 2
  Basis Set: AUG-CC-PV(5+D)Z
    Blend: AUG-CC-PV(5+D)Z

    Orbital Energies (a.u.)
    -----------------------

    Alpha Occupied:

       1Ag   -20.223996     2Ag    -0.909683     1B3u   -0.238580
       1B1u   -0.145672     1B2u   -0.145672

    Alpha Virtual:

       2B3u    0.282231     2B2u    0.289920     2B1u    0.289920
       3Ag     0.354150     4Ag     0.647520     1B1g    0.650659
       1B2g    0.650659     5Ag     0.660899     1B3g    0.660899
       3B3u    0.751506     3B2u    0.780101     3B1u    0.780101
       6Ag     1.053851     4B3u    1.254540     4B1u    1.256780
       4B2u    1.256780     5B3u    1.263586     1Au     1.263586
       5B2u    1.275308     5B1u    1.275308     7Ag     1.573824
       2B1g    1.583240     2B2g    1.583240     8Ag     1.613957
       2B3g    1.613957     6B3u    1.974554     6B2u    2.026383
       6B1u    2.026383     9Ag     2.940010     3B2g    2.942233
       3B1g    2.942233     3B3g    2.948939    10Ag     2.948939
       4B2g    2.960246     4B1g    2.960246     4B3g    2.976378
      11Ag     2.976378     7B3u    3.219023     7B1u    3.224262
       7B2u    3.224262     8B3u    3.240123     2Au     3.240123
      12Ag     3.255420     8B2u    3.267177     8B1u    3.267177
      13Ag     3.596203     5B1g    3.611607     5B2g    3.611607
       5B3g    3.660485    14Ag     3.660485     9B3u    5.224782
       9B2u    5.290965     9B1u    5.290965    10B3u    6.544294
      10B1u    6.546438    10B2u    6.546438    11B3u    6.552884
       3Au     6.552884    11B1u    6.563673    11B2u    6.563673
       4Au     6.578878    12B3u    6.578878    12B1u    6.598604
      12B2u    6.598604    15Ag     7.429101     6B1g    7.433090
       6B2g    7.433090     6B3g    7.445096    16Ag     7.445096
       7B1g    7.465248     7B2g    7.465248    17Ag     7.493783
       7B3g    7.493783    13B3u    7.755430    13B1u    7.763383
      13B2u    7.763383    14B3u    7.787398     5Au     7.787398
      14B1u    7.828037    14B2u    7.828037    18Ag     8.695676
       8B2g    8.713379     8B1g    8.713379     8B3g    8.768167
      19Ag     8.768167    20Ag    10.549982    15B3u   16.040568
      15B2u   16.097229    15B1u   16.097229    16B3u   16.592746
      16B2u   16.595870    16B1u   16.595870    17B3u   16.605256
       6Au    16.605256    17B2u   16.620947    17B1u   16.620947
      18B3u   16.643019     7Au    16.643019    18B1u   16.671576
      18B2u   16.671576    21Ag    19.437497     9B1g   19.442571
       9B2g   19.442571    22Ag    19.457825     9B3g   19.457825
      10B1g   19.483352    10B2g   19.483352    10B3g   19.519311
      23Ag    19.519311    19B3u   19.530991    19B1u   19.539404
      19B2u   19.539404    20B3u   19.564749     8Au    19.564749
      20B1u   19.607371    20B2u   19.607371    24Ag    22.396890
      11B2g   22.412589    11B1g   22.412589    11B3g   22.460408
      25Ag    22.460408    26Ag    60.178076

    Beta Occupied:

       1Ag   -20.183006     2Ag    -0.729265     1B1u   -0.079889
       1B2u   -0.079889

    Beta Virtual:

       1B3u    0.270454     2B2u    0.293317     2B1u    0.293317
       3Ag     0.355692     2B3u    0.478807     1B1g    0.654566
       1B2g    0.654566     4Ag     0.654614     5Ag     0.654935
       1B3g    0.654935     3B2u    0.793911     3B1u    0.793911
       3B3u    0.872857     6Ag     1.078102     4B3u    1.259648
       4B2u    1.260931     4B1u    1.260931     5B3u    1.264849
       1Au     1.264849     5B2u    1.271394     5B1u    1.271394
       7Ag     1.615826     2B3g    1.615826     2B1g    1.625628
       2B2g    1.625628     8Ag     1.629566     6B2u    2.049589
       6B1u    2.049589     6B3u    2.094178     9Ag     2.949163
       3B2g    2.950701     3B1g    2.950701     3B3g    2.955319
      10Ag     2.955319     4B2g    2.963026     4B1g    2.963026
       4B3g    2.973815    11Ag     2.973815     7B3u    3.249374
       7B1u    3.251463     7B2u    3.251463     8B3u    3.257721
       2Au     3.257721     8B2u    3.268078     8B1u    3.268078
      12Ag     3.298821     5B3g    3.680060    13Ag     3.680060
       5B1g    3.690718     5B2g    3.690718    14Ag     3.695114
       9B2u    5.317935     9B1u    5.317935     9B3u    5.331872
      10B3u    6.558031    10B1u    6.559615    10B2u    6.559615
      11B3u    6.564374     3Au     6.564374    11B1u    6.572323
      11B2u    6.572323     4Au     6.583488    12B3u    6.583488
      12B1u    6.597907    12B2u    6.597907    15Ag     7.458038
       6B1g    7.460464     6B2g    7.460464    16Ag     7.467745
       6B3g    7.467745     7B1g    7.479892     7B2g    7.479892
      17Ag     7.496910     7B3g    7.496910    13B3u    7.812140
      13B2u    7.815171    13B1u    7.815171    14B3u    7.824267
       5Au     7.824267    14B2u    7.839434    14B1u    7.839434
      18Ag     8.785768     8B2g    8.787311     8B1g    8.787311
       8B3g    8.792203    19Ag     8.792203    20Ag    10.591804
      15B3u   16.111840    15B2u   16.118004    15B1u   16.118004
      16B3u   16.620467    16B2u   16.622683    16B1u   16.622683
      17B3u   16.629340     6Au    16.629340    17B2u   16.640461
      17B1u   16.640461    18B3u   16.656084     7Au    16.656084
      18B1u   16.676263    18B2u   16.676263    21Ag    19.479869
       9B1g   19.482938     9B2g   19.482938    22Ag    19.492157
       9B3g   19.492157    10B1g   19.507558    10B2g   19.507558
      10B3g   19.529192    23Ag    19.529192    19B3u   19.586175
      19B1u   19.590165    19B2u   19.590165    20B3u   19.602165
       8Au    19.602165    20B1u   19.622267    20B2u   19.622267
      24Ag    22.454715    11B1g   22.460382    11B2g   22.460382
      11B3g   22.477607    25Ag    22.477607    26Ag    60.195044

    Final Occupation by Irrep:
             Ag   B1g   B2g   B3g    Au   B1u   B2u   B3u
    DOCC [     2,    0,    0,    0,    0,    1,    1,    0 ]
    SOCC [     0,    0,    0,    0,    0,    0,    0,    1 ]

  Energy converged.

  @UHF Final Energy:   -74.79771347232483

   => Energetics <=

    Nuclear Repulsion Energy =              0.0000000000000000
    One-Electron Energy =                -106.8597766353544500
    Two-Electron Energy =                  32.0620631630296131
    PCM Polarization Energy =               0.0000000000000000
    Total Energy =                        -74.7977134723248298

    Alert: EFP and PCM quantities not currently incorporated into SCF psivars.
  UHF NO Occupations:
  HONO-2 :    1B1u 1.9955330
  HONO-1 :    1B2u 1.9955330
  HONO-0 :    1B3u 1.0000000
  LUNO+0 :    2B2u 0.0044670
  LUNO+1 :    2B1u 0.0044670
  LUNO+2 :    3 Ag 0.0021069
  LUNO+3 :    4 Ag 0.0000012

Properties will be evaluated at   0.000000,   0.000000,   0.000000 Bohr

Properties computed using the SCF density matrix

  Nuclear Dipole Moment: (a.u.)
     X:     0.0000      Y:     0.0000      Z:     0.0000

  Electronic Dipole Moment: (a.u.)
     X:     0.0000      Y:     0.0000      Z:     0.0000

  Dipole Moment: (a.u.)
     X:     0.0000      Y:     0.0000      Z:     0.0000     Total:     0.0000

  Dipole Moment: (Debye)
     X:     0.0000      Y:     0.0000      Z:     0.0000     Total:     0.0000

*** tstop() called on cqc05 at Fri Aug 21 06:50:51 2020
Module time:
	user time   =       6.80 seconds =       0.11 minutes
	system time =       0.22 seconds =       0.00 minutes
	total time  =          6 seconds =       0.10 minutes
Total time:
	user time   =       6.80 seconds =       0.11 minutes
	system time =       0.22 seconds =       0.00 minutes
	total time  =          6 seconds =       0.10 minutes

*** tstart() called on cqc05
*** at Fri Aug 21 06:50:51 2020

	Wfn Parameters:
	--------------------
	Wavefunction         = CCSD
	Number of irreps     = 8
	Number of MOs        = 127
	Number of active MOs = 126
	AO-Basis             = NONE
	Semicanonical        = false
	Reference            = UHF
	Print Level          = 1

	IRREP	# MOs	# FZDC	# DOCC	# SOCC	# VIRT	# FZVR
	-----	-----	------	------	------	------	------
	 Ag	   26	    1	    1	    0	    24	    0
	 B1g	   11	    0	    0	    0	    11	    0
	 B2g	   11	    0	    0	    0	    11	    0
	 B3g	   11	    0	    0	    0	    11	    0
	 Au	   8	    0	    0	    0	    8	    0
	 B1u	   20	    0	    1	    0	    19	    0
	 B2u	   20	    0	    1	    0	    19	    0
	 B3u	   20	    0	    0	    1	    19	    0
	Transforming integrals...
	IWL integrals will be deleted.
	(OO|OO)...
	Presorting SO-basis two-electron integrals.
	Sorting File: SO Ints (nn|nn) nbuckets = 1
	Transforming the one-electron integrals and constructing Fock matrices
	Starting AA/AB first half-transformation.
	Sorting AA/AB half-transformed integrals.
	Starting BB first half-transformation.
	Sorting BB half-transformed integrals.
	First half integral transformation complete.
	Starting AA second half-transformation.
	Starting AB second half-transformation.
	Starting BB second half-transformation.
	Two-electron integral transformation complete.
	(OO|OV)...
	Starting AA second half-transformation.
	Starting AB second half-transformation.
	Starting BB second half-transformation.
	Two-electron integral transformation complete.
	(OO|VV)...
	Starting AA second half-transformation.
	Starting AB second half-transformation.
	Starting BB second half-transformation.
	Two-electron integral transformation complete.
	(OV|OO)...
	Starting AA/AB first half-transformation.
	Sorting AA/AB half-transformed integrals.
	Starting BB first half-transformation.
	Sorting BB half-transformed integrals.
	First half integral transformation complete.
	Starting AA second half-transformation.
	Starting AB second half-transformation.
	Starting BB second half-transformation.
	Two-electron integral transformation complete.
	(OV|OV)...
	Starting AA second half-transformation.
	Starting AB second half-transformation.
	Starting BB second half-transformation.
	Two-electron integral transformation complete.
	(OV|VV)...
	Starting AA second half-transformation.
	Starting AB second half-transformation.
	Starting BB second half-transformation.
	Two-electron integral transformation complete.
	(VV|OO)...
	Starting AA/AB first half-transformation.
	Sorting AA/AB half-transformed integrals.
	Starting BB first half-transformation.
	Sorting BB half-transformed integrals.
	First half integral transformation complete.
	Starting AA second half-transformation.
	Starting AB second half-transformation.
	Starting BB second half-transformation.
	Two-electron integral transformation complete.
	(VV|OV)...
	Starting AA second half-transformation.
	Starting AB second half-transformation.
	Starting BB second half-transformation.
	Two-electron integral transformation complete.
	(VV|VV)...
	Starting AA second half-transformation.
	Starting AB second half-transformation.
	Starting BB second half-transformation.
	Two-electron integral transformation complete.
	Frozen core energy     =    -59.10692306763224

	Size of irrep 0 of <AB|CD> integrals:      0.964 (MW) /      7.715 (MB)
	Size of irrep 1 of <AB|CD> integrals:      0.806 (MW) /      6.451 (MB)
	Size of irrep 2 of <AB|CD> integrals:      0.806 (MW) /      6.451 (MB)
	Size of irrep 3 of <AB|CD> integrals:      0.806 (MW) /      6.451 (MB)
	Size of irrep 4 of <AB|CD> integrals:      0.671 (MW) /      5.366 (MB)
	Size of irrep 5 of <AB|CD> integrals:      0.925 (MW) /      7.404 (MB)
	Size of irrep 6 of <AB|CD> integrals:      0.925 (MW) /      7.404 (MB)
	Size of irrep 7 of <AB|CD> integrals:      0.925 (MW) /      7.404 (MB)
	Total:                                     6.831 (MW) /     54.645 (MB)

	Size of irrep 0 of <ab|cd> integrals:      1.002 (MW) /      8.016 (MB)
	Size of irrep 1 of <ab|cd> integrals:      0.841 (MW) /      6.727 (MB)
	Size of irrep 2 of <ab|cd> integrals:      0.841 (MW) /      6.727 (MB)
	Size of irrep 3 of <ab|cd> integrals:      0.821 (MW) /      6.567 (MB)
	Size of irrep 4 of <ab|cd> integrals:      0.689 (MW) /      5.511 (MB)
	Size of irrep 5 of <ab|cd> integrals:      0.947 (MW) /      7.574 (MB)
	Size of irrep 6 of <ab|cd> integrals:      0.947 (MW) /      7.574 (MB)
	Size of irrep 7 of <ab|cd> integrals:      0.972 (MW) /      7.778 (MB)
	Total:                                     7.059 (MW) /     56.473 (MB)

	Size of irrep 0 of <Ab|Cd> integrals:      4.431 (MW) /     35.448 (MB)
	Size of irrep 1 of <Ab|Cd> integrals:      3.294 (MW) /     26.354 (MB)
	Size of irrep 2 of <Ab|Cd> integrals:      3.294 (MW) /     26.354 (MB)
	Size of irrep 3 of <Ab|Cd> integrals:      3.254 (MW) /     26.035 (MB)
	Size of irrep 4 of <Ab|Cd> integrals:      2.719 (MW) /     21.754 (MB)
	Size of irrep 5 of <Ab|Cd> integrals:      3.744 (MW) /     29.954 (MB)
	Size of irrep 6 of <Ab|Cd> integrals:      3.744 (MW) /     29.954 (MB)
	Size of irrep 7 of <Ab|Cd> integrals:      3.795 (MW) /     30.358 (MB)
	Total:                                    28.276 (MW) /    226.210 (MB)

	Size of irrep 0 of <IA|BC> integrals:      0.169 (MW) /      1.352 (MB)
	Size of irrep 1 of <IA|BC> integrals:      0.102 (MW) /      0.819 (MB)
	Size of irrep 2 of <IA|BC> integrals:      0.102 (MW) /      0.819 (MB)
	Size of irrep 3 of <IA|BC> integrals:      0.102 (MW) /      0.819 (MB)
	Size of irrep 4 of <IA|BC> integrals:      0.067 (MW) /      0.537 (MB)
	Size of irrep 5 of <IA|BC> integrals:      0.125 (MW) /      1.000 (MB)
	Size of irrep 6 of <IA|BC> integrals:      0.125 (MW) /      1.000 (MB)
	Size of irrep 7 of <IA|BC> integrals:      0.125 (MW) /      1.000 (MB)
	Total:                                     0.918 (MW) /      7.347 (MB)

	Size of irrep 0 of <ia|bc> integrals:      0.132 (MW) /      1.054 (MB)
	Size of irrep 1 of <ia|bc> integrals:      0.072 (MW) /      0.572 (MB)
	Size of irrep 2 of <ia|bc> integrals:      0.072 (MW) /      0.572 (MB)
	Size of irrep 3 of <ia|bc> integrals:      0.089 (MW) /      0.710 (MB)
	Size of irrep 4 of <ia|bc> integrals:      0.050 (MW) /      0.398 (MB)
	Size of irrep 5 of <ia|bc> integrals:      0.105 (MW) /      0.841 (MB)
	Size of irrep 6 of <ia|bc> integrals:      0.105 (MW) /      0.841 (MB)
	Size of irrep 7 of <ia|bc> integrals:      0.083 (MW) /      0.663 (MB)
	Total:                                     0.706 (MW) /      5.651 (MB)

	Size of irrep 0 of <Ia|Bc> integrals:      0.173 (MW) /      1.381 (MB)
	Size of irrep 1 of <Ia|Bc> integrals:      0.105 (MW) /      0.842 (MB)
	Size of irrep 2 of <Ia|Bc> integrals:      0.105 (MW) /      0.842 (MB)
	Size of irrep 3 of <Ia|Bc> integrals:      0.103 (MW) /      0.823 (MB)
	Size of irrep 4 of <Ia|Bc> integrals:      0.068 (MW) /      0.541 (MB)
	Size of irrep 5 of <Ia|Bc> integrals:      0.126 (MW) /      1.006 (MB)
	Size of irrep 6 of <Ia|Bc> integrals:      0.126 (MW) /      1.006 (MB)
	Size of irrep 7 of <Ia|Bc> integrals:      0.129 (MW) /      1.029 (MB)
	Total:                                     0.934 (MW) /      7.470 (MB)

	Size of irrep 0 of <iA|bC> integrals:      0.131 (MW) /      1.044 (MB)
	Size of irrep 1 of <iA|bC> integrals:      0.069 (MW) /      0.552 (MB)
	Size of irrep 2 of <iA|bC> integrals:      0.069 (MW) /      0.552 (MB)
	Size of irrep 3 of <iA|bC> integrals:      0.088 (MW) /      0.707 (MB)
	Size of irrep 4 of <iA|bC> integrals:      0.049 (MW) /      0.396 (MB)
	Size of irrep 5 of <iA|bC> integrals:      0.104 (MW) /      0.836 (MB)
	Size of irrep 6 of <iA|bC> integrals:      0.104 (MW) /      0.836 (MB)
	Size of irrep 7 of <iA|bC> integrals:      0.080 (MW) /      0.639 (MB)
	Total:                                     0.695 (MW) /      5.561 (MB)

	Size of irrep 0 of tIjAb amplitudes:       0.006 (MW) /      0.051 (MB)
	Size of irrep 1 of tIjAb amplitudes:       0.002 (MW) /      0.015 (MB)
	Size of irrep 2 of tIjAb amplitudes:       0.002 (MW) /      0.015 (MB)
	Size of irrep 3 of tIjAb amplitudes:       0.004 (MW) /      0.029 (MB)
	Size of irrep 4 of tIjAb amplitudes:       0.000 (MW) /      0.000 (MB)
	Size of irrep 5 of tIjAb amplitudes:       0.004 (MW) /      0.031 (MB)
	Size of irrep 6 of tIjAb amplitudes:       0.004 (MW) /      0.031 (MB)
	Size of irrep 7 of tIjAb amplitudes:       0.002 (MW) /      0.016 (MB)
	Total:                                     0.023 (MW) /      0.186 (MB)

	Nuclear Rep. energy          =      0.00000000000000
	SCF energy                   =    -74.79771347232483
	One-electron energy          =    -29.05293250600963
	Two-electron (AA) energy     =      3.61011332836443
	Two-electron (BB) energy     =      1.63140527031121
	Two-electron (AB) energy     =      8.12062350264135
	Two-electron energy          =     13.36214210131699
	Reference energy             =    -74.79771347232489

*** tstop() called on cqc05 at Fri Aug 21 06:50:55 2020
Module time:
	user time   =       2.39 seconds =       0.04 minutes
	system time =       1.47 seconds =       0.02 minutes
	total time  =          4 seconds =       0.07 minutes
Total time:
	user time   =       9.19 seconds =       0.15 minutes
	system time =       1.69 seconds =       0.03 minutes
	total time  =         10 seconds =       0.17 minutes

*** tstart() called on cqc05
*** at Fri Aug 21 06:50:55 2020

            **************************
            *                        *
            *        CCENERGY        *
            *                        *
            **************************

    Nuclear Rep. energy (wfn)     =    0.000000000000000
    SCF energy          (wfn)     =  -74.797713472324830
    Reference energy    (file100) =  -74.797713472324887

    Input parameters:
    -----------------
    Wave function   =     CCSD
    Reference wfn   =     UHF
    Brueckner       =     No
    Memory (Mbytes) =     250000.0
    Maxiter         =     50
    R_Convergence   =     1.0e-07
    E_Convergence   =     1.0e-06
    Restart         =     Yes
    DIIS            =     Yes
    AO Basis        =     NONE
    ABCD            =     NEW
    Cache Level     =     2
    Cache Type      =     LRU
    Print Level     =     1
    Num. of threads =     4
    # Amps to Print =     10
    Print MP2 Amps? =     No
    Analyze T2 Amps =     No
    Print Pair Ener =     No
    Local CC        =     No
    SCS-MP2         =     False
    SCSN-MP2        =     False
    SCS-CCSD        =     False

MP2 correlation energy -0.2416610839222353
                Solving CC Amplitude Equations
                ------------------------------
  Iter             Energy              RMS        T1Diag      D1Diag    New D1Diag    D2Diag
  ----     ---------------------    ---------   ----------  ----------  ----------   --------
     0        -0.241661083922236    0.000e+00    0.000000    0.000000    0.000000    0.000000
     1        -0.237987772898379    7.792e-02    0.024890    0.000000    0.000000    0.000000
     2        -0.242807418617659    3.436e-02    0.021458    0.000000    0.000000    0.000000
     3        -0.245185495489117    1.717e-02    0.027284    0.000000    0.000000    0.000000
     4        -0.245299231946076    7.039e-03    0.030539    0.000000    0.000000    0.000000
     5        -0.245162803835626    3.419e-03    0.031575    0.000000    0.000000    0.000000
     6        -0.245270783699344    1.645e-03    0.032088    0.000000    0.000000    0.000000
     7        -0.245298534679027    8.480e-04    0.032034    0.000000    0.000000    0.000000

      * MP2 total energy                      =  -75.039374556247125
      * CCSD total energy                     =  -75.043015484439181
*** Psi4 exiting successfully. Buy a developer a beer!
