                               Psi4 1.4a3.dev88

  ==> Input File <==

--------------------------------------------------------------------------
# Any line starting with the # character is a comment line
memory 250000 mb
molecule molecule{
-1 1
S          0.0000000000        0.0000000000        0.0408346674
H          0.0000000000        0.0000000000       -1.2988465945
}

set {
  reference rhf
  basis aug-cc-pV(6+d)Z
  scf_type OUT_OF_CORE
  freeze_core true
}

energy('ccsd(t)')
--------------------------------------------------------------------------

    Molecular point group: c2v

    Geometry (in Angstrom), charge = -1, multiplicity = 1:

       Center              X                  Y                   Z               Mass
    ------------   -----------------  -----------------  -----------------  -----------------
         S            0.000000000000     0.000000000000     0.040939010314    31.972071174400
         H            0.000000000000     0.000000000000    -1.298742251586     1.007825032230

  Charge       = -1
  Multiplicity = 1
  Basis Set: AUG-CC-PV(6+D)Z
    Blend: AUG-CC-PV(6+D)Z

    Orbital Energies [Eh]
    ---------------------

    Doubly Occupied:

       1A1   -91.663483     2A1    -8.664228     3A1    -6.346037
       1B1    -6.344652     1B2    -6.344652     4A1    -0.645154
       5A1    -0.254818     2B1    -0.094915     2B2    -0.094915

  @RHF Final Energy:  -398.14988376250972

   => Energetics <=

    Nuclear Repulsion Energy =              6.3200371696711866
    One-Electron Energy =                -568.0341403374224001
    Two-Electron Energy =                 163.5642194052414879
    Total Energy =                       -398.1498837625097167

  Dipole Moment: [D]
     X:     0.0000      Y:     0.0000      Z:    -0.4744     Total:     0.4744

      * MP2 total energy                      = -398.374225574980073
      * CCSD total energy                     = -398.386186293288574
      * CCSD(T) total energy                  = -398.398376697162746
*** Psi4 exiting successfully. Buy a developer a beer!
