                               Psi4 1.4a3.dev88

  ==> Input File <==

--------------------------------------------------------------------------
# Any line starting with the # character is a comment line
memory 250000 mb
molecule molecule{
-1 1
S          0.0000000000        0.0000000000        0.0408346674
H          0.0000000000        0.0000000000       -1.2988465945
}

set {
  reference rhf
  basis aug-cc-pV(d+d)Z
  scf_type OUT_OF_CORE
  freeze_core true
}

energy('ccsd(t)')
--------------------------------------------------------------------------

    Molecular point group: c2v

    Geometry (in Angstrom), charge = -1, multiplicity = 1:

       Center              X                  Y                   Z               Mass
    ------------   -----------------  -----------------  -----------------  -----------------
         S            0.000000000000     0.000000000000     0.040939010314    31.972071174400
         H            0.000000000000     0.000000000000    -1.298742251586     1.007825032230

  Charge       = -1
  Multiplicity = 1
  Basis Set: AUG-CC-PV(D+D)Z
    Blend: AUG-CC-PV(D+D)Z

    Orbital Energies [Eh]
    ---------------------

    Doubly Occupied:

       1A1   -91.668544     2A1    -8.667736     3A1    -6.350446
       1B2    -6.347546     1B1    -6.347546     4A1    -0.646430
       5A1    -0.255070     2B1    -0.094432     2B2    -0.094432

  @RHF Final Energy:  -398.13560638456602

   => Energetics <=

    Nuclear Repulsion Energy =              6.3200371696711866
    One-Electron Energy =                -567.9669238963405178
    Two-Electron Energy =                 163.5112803421032481
    Total Energy =                       -398.1356063845660742

  Dipole Moment: [D]
     X:     0.0000      Y:     0.0000      Z:    -0.5162     Total:     0.5162

      * MP2 total energy                      = -398.297052424929404
      * CCSD total energy                     = -398.314799646319671
      * CCSD(T) total energy                  = -398.320960820735593
*** Psi4 exiting successfully. Buy a developer a beer!
