                               Psi4 1.4a3.dev88

  ==> Input File <==

--------------------------------------------------------------------------
# Any line starting with the # character is a comment line
memory 250000 mb
molecule molecule{
-1 1
S          0.0000000000        0.0000000000        0.0408346674
H          0.0000000000        0.0000000000       -1.2988465945
}

set {
  reference rhf
  basis aug-cc-pV(t+d)Z
  scf_type OUT_OF_CORE
  freeze_core true
}

energy('ccsd(t)')
--------------------------------------------------------------------------

    Molecular point group: c2v

    Geometry (in Angstrom), charge = -1, multiplicity = 1:

       Center              X                  Y                   Z               Mass
    ------------   -----------------  -----------------  -----------------  -----------------
         S            0.000000000000     0.000000000000     0.040939010314    31.972071174400
         H            0.000000000000     0.000000000000    -1.298742251586     1.007825032230

  Charge       = -1
  Multiplicity = 1
  Basis Set: AUG-CC-PV(T+D)Z
    Blend: AUG-CC-PV(T+D)Z

    Orbital Energies [Eh]
    ---------------------

    Doubly Occupied:

       1A1   -91.663859     2A1    -8.664485     3A1    -6.346257
       1B2    -6.344418     1B1    -6.344418     4A1    -0.645211
       5A1    -0.254654     2B1    -0.094808     2B2    -0.094808

  @RHF Final Energy:  -398.14628360140853

   => Energetics <=

    Nuclear Repulsion Energy =              6.3200371696711866
    One-Electron Energy =                -568.0268059410352635
    Two-Electron Energy =                 163.5604851699555127
    Total Energy =                       -398.1462836014085269

  Dipole Moment: [D]
     X:     0.0000      Y:     0.0000      Z:    -0.4874     Total:     0.4874

      * MP2 total energy                      = -398.346581483272871
      * CCSD total energy                     = -398.364839268427204
      * CCSD(T) total energy                  = -398.375356364686922
*** Psi4 exiting successfully. Buy a developer a beer!
