                               Psi4 1.4a3.dev88

  ==> Input File <==

--------------------------------------------------------------------------
# Any line starting with the # character is a comment line
memory 250000 mb
molecule molecule{
1 4
S          0.0000000000        0.0000000000        0.0000000000
}

set {
  reference uhf
  basis aug-cc-pv(5+d)z
  scf_type OUT_OF_CORE
  freeze_core true
}

energy('ccsd(t)')
--------------------------------------------------------------------------

    Molecular point group: d2h
    Geometry (in Angstrom), charge = 1, multiplicity = 4:

       Center              X                  Y                   Z               Mass
    ------------   -----------------  -----------------  -----------------  -----------------
         S            0.000000000000     0.000000000000     0.000000000000    31.972071174400

  Charge       = 1
  Multiplicity = 4
  Basis Set: AUG-CC-PV(5+D)Z
    Blend: AUG-CC-PV(5+D)Z

    Orbital Energies [Eh]
    ---------------------

    Alpha Occupied:

       1Ag   -92.450175     2Ag    -9.443089     1B1u   -7.133148
       1B3u   -7.133148     1B2u   -7.133148     3Ag    -1.412426
       2B1u   -0.862419     2B3u   -0.862419     2B2u   -0.862419

    Alpha Virtual:

       4Ag    -0.121114     3B1u   -0.081283     3B3u   -0.081283
       3B2u   -0.081283     5Ag    -0.039341     1B2g   -0.039341
       1B3g   -0.039341     1B1g   -0.039341     6Ag    -0.039341
       4B1u    0.113645     4B3u    0.113645     4B2u    0.113645
       7Ag     0.168727     2B2g    0.168727     2B3g    0.168727
       2B1g    0.168727     8Ag     0.168727     9Ag     0.178062
       5B1u    0.235241     5B3u    0.235241     5B2u    0.235241
       1Au     0.235241     6B1u    0.235241     6B3u    0.235241
       6B2u    0.235241    10Ag     0.804560     3B2g    0.804560
       3B3g    0.804560     3B1g    0.804560    11Ag     0.804560
       4B2g    0.804560     4B3g    0.804560     4B1g    0.804560
      12Ag     0.804560    13Ag     0.806094     5B2g    0.806094
       5B3g    0.806094     5B1g    0.806094    14Ag     0.806094
       7B1u    0.870667     7B3u    0.870667     7B2u    0.870667
       8B1u    0.872403     8B3u    0.872403     8B2u    0.872403
       2Au     0.872403     9B1u    0.872403     9B3u    0.872403
       9B2u    0.872403    15Ag     1.271417    10B1u    2.200959
      10B3u    2.200959    10B2u    2.200959     3Au     2.200959
      11B1u    2.200959    11B3u    2.200959    11B2u    2.200959
      16Ag     2.333060     6B2g    2.333060     6B3g    2.333060
       6B1g    2.333060    17Ag     2.333060     7B2g    2.333060
       7B3g    2.333060     7B1g    2.333060    18Ag     2.333060
      12B3u    2.362834    12B1u    2.362834    12B2u    2.362834
       4Au     2.362834    13B1u    2.362834    13B3u    2.362834
      13B2u    2.362834     5Au     2.362834    14B1u    2.362834
      14B3u    2.362834    14B2u    2.362834    19Ag     2.384154
       8B2g    2.384154     8B3g    2.384154     8B1g    2.384154
      20Ag     2.384154    15B1u    3.469929    15B3u    3.469929
      15B2u    3.469929    16B1u    4.946748    16B3u    4.946748
      16B2u    4.946748     6Au     4.946748    17B1u    4.946748
      17B3u    4.946748    17B2u    4.946748    21Ag     5.245406
      22Ag     5.505047     9B3g    5.505047     9B2g    5.505047
      23Ag     5.505047     9B1g    5.505047    24Ag     5.726859
      10B2g    5.726859    10B3g    5.726859    10B1g    5.726859
      25Ag     5.726859    11B2g    5.726859    11B3g    5.726859
      11B1g    5.726859    26Ag     5.726859    18B1u    5.850204
      18B3u    5.850204    18B2u    5.850204     7Au     5.850204
      19B1u    5.850204    19B3u    5.850204    19B2u    5.850204
       8Au     5.850204    20B1u    5.850204    20B3u    5.850204
      20B2u    5.850204    27Ag    15.810950    12B1g   15.810950
      12B3g   15.810950    12B2g   15.810950    28Ag    15.810950
      21B1u   23.884643    21B3u   23.884643    21B2u   23.884643
      29Ag    55.884892

    Beta Occupied:

       1Ag   -92.417377     2Ag    -9.411748     1B1u   -7.074404
       1B2u   -7.074404     1B3u   -7.074404     3Ag    -1.067728

    Beta Virtual:

       2B2u   -0.306873     2B3u   -0.306873     2B1u   -0.306873
       4Ag    -0.108800     3B2u   -0.068967     3B3u   -0.068967
       3B1u   -0.068967     5Ag    -0.004315     1B1g   -0.004315
       1B3g   -0.004315     1B2g   -0.004315     6Ag    -0.004315
       4B2u    0.151117     4B3u    0.151117     4B1u    0.151117
       7Ag     0.208869     5B1u    0.241886     5B3u    0.241886
       5B2u    0.241886     1Au     0.241886     6B1u    0.241886
       6B3u    0.241886     6B2u    0.241886     8Ag     0.263367
       2B1g    0.263367     2B3g    0.263367     2B2g    0.263367
       9Ag     0.263367     3B2g    0.813537    10Ag     0.813537
       3B3g    0.813537     3B1g    0.813537    11Ag     0.813537
       4B2g    0.813537     4B3g    0.813537     4B1g    0.813537
      12Ag     0.813537    13Ag     0.882447     5B1g    0.882447
       5B3g    0.882447     5B2g    0.882447    14Ag     0.882447
       7B2u    0.912077     7B3u    0.912077     7B1u    0.912077
       2Au     0.912077     8B2u    0.912077     8B3u    0.912077
       8B1u    0.912077     9B2u    0.943659     9B3u    0.943659
       9B1u    0.943659    15Ag     1.329559    10B2u    2.267954
      10B3u    2.267954    10B1u    2.267954     3Au     2.267954
      11B2u    2.267954    11B3u    2.267954    11B1u    2.267954
      16Ag     2.372318     6B1g    2.372318     6B3g    2.372318
       6B2g    2.372318    17Ag     2.372318     7B1g    2.372318
       7B3g    2.372318     7B2g    2.372318    18Ag     2.372318
      12B3u    2.381793    12B2u    2.381793    12B1u    2.381793
       4Au     2.381793    13B3u    2.381793    13B2u    2.381793
      13B1u    2.381793     5Au     2.381793    14B3u    2.381793
      14B2u    2.381793    14B1u    2.381793    19Ag     2.426776
       8B1g    2.426776     8B3g    2.426776     8B2g    2.426776
      20Ag     2.426776    15B2u    3.537229    15B3u    3.537229
      15B1u    3.537229    16B2u    4.993752    16B3u    4.993752
      16B1u    4.993752     6Au     4.993752    17B2u    4.993752
      17B3u    4.993752    17B1u    4.993752    21Ag     5.293744
      22Ag     5.536113     9B1g    5.536113     9B3g    5.536113
       9B2g    5.536113    23Ag     5.536113    24Ag     5.776781
      10B1g    5.776781    10B3g    5.776781    10B2g    5.776781
      25Ag     5.776781    11B1g    5.776781    11B3g    5.776781
      11B2g    5.776781    26Ag     5.776781    18B2u    5.889230
      18B3u    5.889230    18B1u    5.889230     7Au     5.889230
      19B2u    5.889230    19B3u    5.889230    19B1u    5.889230
       8Au     5.889230    20B2u    5.889230    20B3u    5.889230
      20B1u    5.889230    27Ag    15.841523    12B1g   15.841523
      12B3g   15.841523    12B2g   15.841523    28Ag    15.841523
      21B2u   23.929434    21B3u   23.929434    21B1u   23.929434
      29Ag    55.908162

    Final Occupation by Irrep:
             Ag   B1g   B2g   B3g    Au   B1u   B2u   B3u
    DOCC [     3,    0,    0,    0,    0,    1,    1,    1 ]
    SOCC [     0,    0,    0,    0,    0,    1,    1,    1 ]

  @UHF Final Energy:  -397.17375086670489

   => Energetics <=

    Nuclear Repulsion Energy =              0.0000000000000000
    One-Electron Energy =                -542.9350460652435686
    Two-Electron Energy =                 145.7612951985386758
    Total Energy =                       -397.1737508667048928

  UHF NO Occupations:
  HONO-2 :    2B1u 1.0000000
  HONO-1 :    2B2u 1.0000000
  HONO-0 :    2B3u 1.0000000
  LUNO+0 :    4 Ag 0.0004280
  LUNO+1 :    3B2u 0.0000065
  LUNO+2 :    3B3u 0.0000065
  LUNO+3 :    3B1u 0.0000065

Computation Completed

Properties will be evaluated at   0.000000,   0.000000,   0.000000 [a0]

Properties computed using the SCF density matrix

  Nuclear Dipole Moment: [e a0]
     X:     0.0000      Y:     0.0000      Z:     0.0000

  Electronic Dipole Moment: [e a0]
     X:     0.0000      Y:     0.0000      Z:     0.0000

  Dipole Moment: [e a0]
     X:     0.0000      Y:     0.0000      Z:     0.0000     Total:     0.0000

  Dipole Moment: [D]
     X:     0.0000      Y:     0.0000      Z:     0.0000     Total:     0.0000

*** tstop() called on n412-041.vsc4.prov at Wed Jan 20 21:54:05 2021
Module time:
	user time   =      34.72 seconds =       0.58 minutes
	system time =       3.02 seconds =       0.05 minutes
	total time  =         25 seconds =       0.42 minutes
Total time:
	user time   =      34.72 seconds =       0.58 minutes
	system time =       3.02 seconds =       0.05 minutes
	total time  =         25 seconds =       0.42 minutes

*** tstart() called on n412-041.vsc4.prov
*** at Wed Jan 20 21:54:05 2021

	Wfn Parameters:
	--------------------
	Wavefunction         = CCSD_T
	Number of irreps     = 8
	Number of MOs        = 136
	Number of active MOs = 131
	AO-Basis             = NONE
	Semicanonical        = false
	Reference            = UHF
	Print Level          = 1

	IRREP	# MOs	# FZDC	# DOCC	# SOCC	# VIRT	# FZVR
	-----	-----	------	------	------	------	------
	 Ag	   29	    2	    1	    0	    26	    0
	 B1g	   12	    0	    0	    0	    12	    0
	 B2g	   12	    0	    0	    0	    12	    0
	 B3g	   12	    0	    0	    0	    12	    0
	 Au	   8	    0	    0	    0	    8	    0
	 B1u	   21	    1	    0	    1	    19	    0
	 B2u	   21	    1	    0	    1	    19	    0
	 B3u	   21	    1	    0	    1	    19	    0
	Transforming integrals...
	IWL integrals will be deleted.
	(OO|OO)...
	Presorting SO-basis two-electron integrals.
	Sorting File: SO Ints (nn|nn) nbuckets = 1
	Constructing frozen core operators
	Starting AA/AB first half-transformation.
	Sorting AA/AB half-transformed integrals.
	Starting BB first half-transformation.
	Sorting BB half-transformed integrals.
	First half integral transformation complete.
	Starting AA second half-transformation.
	Starting AB second half-transformation.
	Starting BB second half-transformation.
	Two-electron integral transformation complete.
	(OO|OV)...
	Starting AA second half-transformation.
	Starting AB second half-transformation.
	Starting BB second half-transformation.
	Two-electron integral transformation complete.
	(OO|VV)...
	Starting AA second half-transformation.
	Starting AB second half-transformation.
	Starting BB second half-transformation.
	Two-electron integral transformation complete.
	(OV|OO)...
	Starting AA/AB first half-transformation.
	Sorting AA/AB half-transformed integrals.
	Starting BB first half-transformation.
	Sorting BB half-transformed integrals.
	First half integral transformation complete.
	Starting AA second half-transformation.
	Starting AB second half-transformation.
	Starting BB second half-transformation.
	Two-electron integral transformation complete.
	(OV|OV)...
	Starting AA second half-transformation.
	Starting AB second half-transformation.
	Starting BB second half-transformation.
	Two-electron integral transformation complete.
	(OV|VV)...
	Starting AA second half-transformation.
	Starting AB second half-transformation.
	Starting BB second half-transformation.
	Two-electron integral transformation complete.
	(VV|OO)...
	Starting AA/AB first half-transformation.
	Sorting AA/AB half-transformed integrals.
	Starting BB first half-transformation.
	Sorting BB half-transformed integrals.
	First half integral transformation complete.
	Starting AA second half-transformation.
	Starting AB second half-transformation.
	Starting BB second half-transformation.
	Two-electron integral transformation complete.
	(VV|OV)...
	Starting AA second half-transformation.
	Starting AB second half-transformation.
	Starting BB second half-transformation.
	Two-electron integral transformation complete.
	(VV|VV)...
	Starting AA second half-transformation.
	Starting AB second half-transformation.
	Starting BB second half-transformation.
	Two-electron integral transformation complete.
	Frozen core energy     =   -387.55372153352931

	Size of irrep 0 of <AB|CD> integrals:      1.132 (MW) /      9.057 (MB)
	Size of irrep 1 of <AB|CD> integrals:      0.939 (MW) /      7.512 (MB)
	Size of irrep 2 of <AB|CD> integrals:      0.939 (MW) /      7.512 (MB)
	Size of irrep 3 of <AB|CD> integrals:      0.939 (MW) /      7.512 (MB)
	Size of irrep 4 of <AB|CD> integrals:      0.796 (MW) /      6.365 (MB)
	Size of irrep 5 of <AB|CD> integrals:      1.094 (MW) /      8.753 (MB)
	Size of irrep 6 of <AB|CD> integrals:      1.094 (MW) /      8.753 (MB)
	Size of irrep 7 of <AB|CD> integrals:      1.094 (MW) /      8.753 (MB)
	Total:                                     8.027 (MW) /     64.216 (MB)

	Size of irrep 0 of <ab|cd> integrals:      1.257 (MW) /     10.053 (MB)
	Size of irrep 1 of <ab|cd> integrals:      1.032 (MW) /      8.258 (MB)
	Size of irrep 2 of <ab|cd> integrals:      1.032 (MW) /      8.258 (MB)
	Size of irrep 3 of <ab|cd> integrals:      1.032 (MW) /      8.258 (MB)
	Size of irrep 4 of <ab|cd> integrals:      0.861 (MW) /      6.889 (MB)
	Size of irrep 5 of <ab|cd> integrals:      1.201 (MW) /      9.610 (MB)
	Size of irrep 6 of <ab|cd> integrals:      1.201 (MW) /      9.610 (MB)
	Size of irrep 7 of <ab|cd> integrals:      1.201 (MW) /      9.610 (MB)
	Total:                                     8.818 (MW) /     70.546 (MB)

	Size of irrep 0 of <Ab|Cd> integrals:      5.345 (MW) /     42.763 (MB)
	Size of irrep 1 of <Ab|Cd> integrals:      3.936 (MW) /     31.490 (MB)
	Size of irrep 2 of <Ab|Cd> integrals:      3.936 (MW) /     31.490 (MB)
	Size of irrep 3 of <Ab|Cd> integrals:      3.936 (MW) /     31.490 (MB)
	Size of irrep 4 of <Ab|Cd> integrals:      3.312 (MW) /     26.499 (MB)
	Size of irrep 5 of <Ab|Cd> integrals:      4.588 (MW) /     36.705 (MB)
	Size of irrep 6 of <Ab|Cd> integrals:      4.588 (MW) /     36.705 (MB)
	Size of irrep 7 of <Ab|Cd> integrals:      4.588 (MW) /     36.705 (MB)
	Total:                                    34.231 (MW) /    273.848 (MB)

	Size of irrep 0 of <IA|BC> integrals:      0.187 (MW) /      1.497 (MB)
	Size of irrep 1 of <IA|BC> integrals:      0.112 (MW) /      0.899 (MB)
	Size of irrep 2 of <IA|BC> integrals:      0.112 (MW) /      0.899 (MB)
	Size of irrep 3 of <IA|BC> integrals:      0.112 (MW) /      0.899 (MB)
	Size of irrep 4 of <IA|BC> integrals:      0.078 (MW) /      0.628 (MB)
	Size of irrep 5 of <IA|BC> integrals:      0.144 (MW) /      1.155 (MB)
	Size of irrep 6 of <IA|BC> integrals:      0.144 (MW) /      1.155 (MB)
	Size of irrep 7 of <IA|BC> integrals:      0.144 (MW) /      1.155 (MB)
	Total:                                     1.036 (MW) /      8.287 (MB)

	Size of irrep 0 of <ia|bc> integrals:      0.062 (MW) /      0.493 (MB)
	Size of irrep 1 of <ia|bc> integrals:      0.024 (MW) /      0.195 (MB)
	Size of irrep 2 of <ia|bc> integrals:      0.024 (MW) /      0.195 (MB)
	Size of irrep 3 of <ia|bc> integrals:      0.024 (MW) /      0.195 (MB)
	Size of irrep 4 of <ia|bc> integrals:      0.015 (MW) /      0.119 (MB)
	Size of irrep 5 of <ia|bc> integrals:      0.044 (MW) /      0.351 (MB)
	Size of irrep 6 of <ia|bc> integrals:      0.044 (MW) /      0.351 (MB)
	Size of irrep 7 of <ia|bc> integrals:      0.044 (MW) /      0.351 (MB)
	Total:                                     0.281 (MW) /      2.250 (MB)

	Size of irrep 0 of <Ia|Bc> integrals:      0.199 (MW) /      1.591 (MB)
	Size of irrep 1 of <Ia|Bc> integrals:      0.119 (MW) /      0.952 (MB)
	Size of irrep 2 of <Ia|Bc> integrals:      0.119 (MW) /      0.952 (MB)
	Size of irrep 3 of <Ia|Bc> integrals:      0.119 (MW) /      0.952 (MB)
	Size of irrep 4 of <Ia|Bc> integrals:      0.080 (MW) /      0.641 (MB)
	Size of irrep 5 of <Ia|Bc> integrals:      0.150 (MW) /      1.200 (MB)
	Size of irrep 6 of <Ia|Bc> integrals:      0.150 (MW) /      1.200 (MB)
	Size of irrep 7 of <Ia|Bc> integrals:      0.150 (MW) /      1.200 (MB)
	Total:                                     1.086 (MW) /      8.687 (MB)

	Size of irrep 0 of <iA|bC> integrals:      0.060 (MW) /      0.481 (MB)
	Size of irrep 1 of <iA|bC> integrals:      0.024 (MW) /      0.190 (MB)
	Size of irrep 2 of <iA|bC> integrals:      0.024 (MW) /      0.190 (MB)
	Size of irrep 3 of <iA|bC> integrals:      0.024 (MW) /      0.190 (MB)
	Size of irrep 4 of <iA|bC> integrals:      0.015 (MW) /      0.116 (MB)
	Size of irrep 5 of <iA|bC> integrals:      0.041 (MW) /      0.326 (MB)
	Size of irrep 6 of <iA|bC> integrals:      0.041 (MW) /      0.326 (MB)
	Size of irrep 7 of <iA|bC> integrals:      0.041 (MW) /      0.326 (MB)
	Total:                                     0.268 (MW) /      2.146 (MB)

	Size of irrep 0 of tIjAb amplitudes:       0.002 (MW) /      0.018 (MB)
	Size of irrep 1 of tIjAb amplitudes:       0.000 (MW) /      0.000 (MB)
	Size of irrep 2 of tIjAb amplitudes:       0.000 (MW) /      0.000 (MB)
	Size of irrep 3 of tIjAb amplitudes:       0.000 (MW) /      0.000 (MB)
	Size of irrep 4 of tIjAb amplitudes:       0.000 (MW) /      0.000 (MB)
	Size of irrep 5 of tIjAb amplitudes:       0.002 (MW) /      0.017 (MB)
	Size of irrep 6 of tIjAb amplitudes:       0.002 (MW) /      0.017 (MB)
	Size of irrep 7 of tIjAb amplitudes:       0.002 (MW) /      0.017 (MB)
	Total:                                     0.009 (MW) /      0.070 (MB)

	Nuclear Rep. energy          =      0.00000000000000
	SCF energy                   =   -397.17375086670489
	One-electron energy          =    -14.17264749790081
	Two-electron (AA) energy     =      2.48755920836187
	Two-electron (BB) energy     =      0.00000000000000
	Two-electron (AB) energy     =      2.06505895636369
	Two-electron energy          =      4.55261816472556
	Reference energy             =   -397.17375086670455

*** tstop() called on n412-041.vsc4.prov at Wed Jan 20 21:54:26 2021
Module time:
	user time   =       3.66 seconds =       0.06 minutes
	system time =       3.77 seconds =       0.06 minutes
	total time  =         21 seconds =       0.35 minutes
Total time:
	user time   =      38.38 seconds =       0.64 minutes
	system time =       6.79 seconds =       0.11 minutes
	total time  =         46 seconds =       0.77 minutes
            **************************
            *                        *
            *        CCENERGY        *
            *                        *
            **************************

    Nuclear Rep. energy (wfn)     =    0.000000000000000
    SCF energy          (wfn)     = -397.173750866704893
    Reference energy    (file100) = -397.173750866704552

    Input parameters:
    -----------------
    Wave function   =     CCSD_T
    Reference wfn   =     UHF
    Brueckner       =     No
    Memory (Mbytes) =     250000.0
    Maxiter         =     50
    R_Convergence   =     1.0e-07
    E_Convergence   =     1.0e-06
    Restart         =     Yes
    DIIS            =     Yes
    AO Basis        =     NONE
    ABCD            =     NEW
    Cache Level     =     2
    Cache Type      =     LRU
    Print Level     =     1
    Num. of threads =     48
    # Amps to Print =     10
    Print MP2 Amps? =     No
    Analyze T2 Amps =     No
    Print Pair Ener =     No
    Local CC        =     No
    SCS-MP2         =     False
    SCSN-MP2        =     False
    SCS-CCSD        =     False

MP2 correlation energy -0.0996871075331013
                Solving CC Amplitude Equations
                ------------------------------
  Iter             Energy              RMS        T1Diag      D1Diag    New D1Diag    D2Diag
  ----     ---------------------    ---------   ----------  ----------  ----------   --------
     0        -0.099687107533101    0.000e+00    0.000000    0.000000    0.000000    0.000000
     1        -0.111737894835144    3.796e-02    0.004395    0.000000    0.000000    0.000000
     2        -0.115747028319454    1.156e-02    0.005926    0.000000    0.000000    0.000000
     3        -0.115862316464406    1.938e-03    0.006131    0.000000    0.000000    0.000000
     4        -0.115873346437828    3.143e-04    0.006127    0.000000    0.000000    0.000000
     5        -0.115867971003141    5.652e-05    0.006124    0.000000    0.000000    0.000000
     6        -0.115868132636714    9.781e-06    0.006123    0.000000    0.000000    0.000000
     7        -0.115868174520272    2.499e-06    0.006123    0.000000    0.000000    0.000000

      * MP2 total energy                      = -397.273437974237652
      * CCSD total energy                     = -397.289619023455714
      * CCSD(T) total energy                     = -397.294073462504116
*** Psi4 exiting successfully. Buy a developer a beer!
