                               Psi4 1.4a3.dev88

  ==> Input File <==

--------------------------------------------------------------------------
# Any line starting with the # character is a comment line
memory 250000 mb
molecule molecule{
0 1
P          0.0000000000        0.0000000000        0.0676721068
H          1.1867955809        0.0000000000       -0.6931826617
H         -0.5933977905        1.0277951222       -0.6931826617
H         -0.5933977905       -1.0277951222       -0.6931826617
}

set {
  reference rhf
  basis aug-cc-pV(Q+d)Z
  scf_type OUT_OF_CORE
  freeze_core true
}

energy('ccsd(t)')
--------------------------------------------------------------------------

    Molecular point group: cs

    Geometry (in Angstrom), charge = 0, multiplicity = 1:

       Center              X                  Y                   Z               Mass
    ------------   -----------------  -----------------  -----------------  -----------------
         P           -0.000000000001    -0.067665070497     0.000000000000    30.973761998420
         H           -0.593397790457     0.693189698003     1.027795122191     1.007825032230
         H           -0.593397790457     0.693189698003    -1.027795122191     1.007825032230
         H            1.186795580959     0.693189698003     0.000000000000     1.007825032230

  Charge       = 0
  Multiplicity = 1
  Basis Set: AUG-CC-PV(Q+D)Z
    Blend: AUG-CC-PV(Q+D)Z

    Orbital Energies [Eh]
    ---------------------

    Doubly Occupied:

       1Ap   -79.941141     2Ap    -7.485017     3Ap    -5.378812
       1App   -5.378812     4Ap    -5.377821     5Ap    -0.856391
       6Ap    -0.523551     2App   -0.523551     7Ap    -0.387679

  @RHF Final Energy:  -342.49400282860216

   => Energetics <=

    Nuclear Repulsion Energy =             17.6639771667621517
    One-Electron Energy =                -508.6104107568460222
    Two-Electron Energy =                 148.4524307614817076
    Total Energy =                       -342.4940028286021629

  Dipole Moment: [D]
     X:     0.0000      Y:     0.6842      Z:     0.0000     Total:     0.6842

      * MP2 total energy                      = -342.677664946197638
      * CCSD total energy                     = -342.703109934501413
      * CCSD(T) total energy                  = -342.710853118361740
*** Psi4 exiting successfully. Buy a developer a beer!
