                               Psi4 1.4a3.dev88

  ==> Input File <==

--------------------------------------------------------------------------
# Any line starting with the # character is a comment line
memory 250000 mb
molecule molecule{
0 1
P          0.0000000000        0.0000000000        0.0676721068
H          1.1867955809        0.0000000000       -0.6931826617
H         -0.5933977905        1.0277951222       -0.6931826617
H         -0.5933977905       -1.0277951222       -0.6931826617
}

set {
  reference rhf
  basis aug-cc-pV(t+d)Z
  scf_type OUT_OF_CORE
  freeze_core true
}

energy('ccsd(t)')
--------------------------------------------------------------------------

    Molecular point group: cs

    Geometry (in Angstrom), charge = 0, multiplicity = 1:

       Center              X                  Y                   Z               Mass
    ------------   -----------------  -----------------  -----------------  -----------------
         P           -0.000000000001    -0.067665070497     0.000000000000    30.973761998420
         H           -0.593397790457     0.693189698003     1.027795122191     1.007825032230
         H           -0.593397790457     0.693189698003    -1.027795122191     1.007825032230
         H            1.186795580959     0.693189698003     0.000000000000     1.007825032230

  Charge       = 0
  Multiplicity = 1
  Basis Set: AUG-CC-PV(T+D)Z
    Blend: AUG-CC-PV(T+D)Z

    Orbital Energies [Eh]
    ---------------------

    Doubly Occupied:

       1Ap   -79.942710     2Ap    -7.485791     3Ap    -5.379294
       1App   -5.379294     4Ap    -5.378382     5Ap    -0.856541
       6Ap    -0.523444     2App   -0.523444     7Ap    -0.387646

  @RHF Final Energy:  -342.49059075668265

   => Energetics <=

    Nuclear Repulsion Energy =             17.6639771667621517
    One-Electron Energy =                -508.5960455189663776
    Two-Electron Energy =                 148.4414775955215759
    Total Energy =                       -342.4905907566826500

  Dipole Moment: [D]
     X:    -0.0000      Y:     0.6877      Z:     0.0000     Total:     0.6877

      * MP2 total energy                      = -342.663804177143220
      * CCSD total energy                     = -342.691839435911334
      * CCSD(T) total energy                  = -342.698959162851850
*** Psi4 exiting successfully. Buy a developer a beer!
