                               Psi4 1.2a1.dev939

  ==> Input File <==

--------------------------------------------------------------------------
# Any line starting with the # character is a comment line

memory 32000 mb

molecule molecule {
0 1
S          0.0000000000        0.0438015885       -0.5846592572
C          0.0000000000       -0.0114958136        1.2261415687
H          0.0000000000       -1.2752662122       -0.7816543571
H          0.0000000000        1.0231583645        1.5597948597
H          0.8921706266       -0.5020602051        1.6036026281
H         -0.8921706266       -0.5020602051        1.6036026281
}

set {
  reference rhf
  basis aug-cc-pv(T+d)z
  scf_type OUT_OF_CORE
  freeze_core true
}

energy('ccsd')
--------------------------------------------------------------------------

    Molecular point group: cs

    Geometry (in Angstrom), charge = 0, multiplicity = 1:

       Center              X                  Y                   Z               Mass
    ------------   -----------------  -----------------  -----------------  -----------------
           S         -0.043876178055     0.585439676560     0.000000000000    31.972070999000
           C          0.011421224045    -1.225361149340     0.000000000000    12.000000000000
           H          1.275191622645     0.782434776460     0.000000000000     1.007825032070
           H         -1.023232954055    -1.559014440340     0.000000000000     1.007825032070
           H          0.501985615545    -1.602822208740     0.892170626600     1.007825032070
           H          0.501985615545    -1.602822208740    -0.892170626600     1.007825032070

  Charge       = 0
  Multiplicity = 1
  Basis Set: AUG-CC-PV(T+D)Z
    Blend: AUG-CC-PV(T+D)Z

    Orbital Energies (a.u.)
    -----------------------

    Doubly Occupied:

       1Ap   -91.952026     2Ap   -11.256957     3Ap    -8.953142
       4Ap    -6.634621     5Ap    -6.633607     1App   -6.632497
       6Ap    -1.039083     7Ap    -0.867059     8Ap    -0.609518
       2App   -0.593630     9Ap    -0.529103    10Ap    -0.460422
       3App   -0.356947

  @RHF Final Energy:  -437.75983852989356

   => Energetics <=

    Nuclear Repulsion Energy =             56.5243254466011464
    One-Electron Energy =                -715.5311060182490337
    Two-Electron Energy =                 221.2469420417544086
    Total Energy =                       -437.7598385298935000
      * MP2 total energy                      = -438.130514543552692
      * CCSD total energy                     = -438.163792457276315
*** Psi4 exiting successfully. Buy a developer a beer!
