                               Psi4 1.2a1.dev939

  ==> Input File <==

--------------------------------------------------------------------------
# Any line starting with the # character is a comment line

memory 32000 mb

molecule molecule {
0 1
S          0.0000000000        0.0438015885       -0.5846592572
C          0.0000000000       -0.0114958136        1.2261415687
H          0.0000000000       -1.2752662122       -0.7816543571
H          0.0000000000        1.0231583645        1.5597948597
H          0.8921706266       -0.5020602051        1.6036026281
H         -0.8921706266       -0.5020602051        1.6036026281
}

set {
  reference rhf
  basis aug-cc-pv(D+d)z
  scf_type OUT_OF_CORE
  freeze_core true
}

energy('ccsd')
--------------------------------------------------------------------------

    Molecular point group: cs

    Geometry (in Angstrom), charge = 0, multiplicity = 1:

       Center              X                  Y                   Z               Mass
    ------------   -----------------  -----------------  -----------------  -----------------
           S         -0.043876178055     0.585439676560     0.000000000000    31.972070999000
           C          0.011421224045    -1.225361149340     0.000000000000    12.000000000000
           H          1.275191622645     0.782434776460     0.000000000000     1.007825032070
           H         -1.023232954055    -1.559014440340     0.000000000000     1.007825032070
           H          0.501985615545    -1.602822208740     0.892170626600     1.007825032070
           H          0.501985615545    -1.602822208740    -0.892170626600     1.007825032070

  Charge       = 0
  Multiplicity = 1
  Basis Set: AUG-CC-PV(D+D)Z
    Blend: AUG-CC-PV(D+D)Z

    Orbital Energies (a.u.)
    -----------------------

    Doubly Occupied:

       1Ap   -91.953843     2Ap   -11.264027     3Ap    -8.955658
       4Ap    -6.637906     5Ap    -6.636527     1App   -6.634320
       6Ap    -1.041059     7Ap    -0.868533     8Ap    -0.609703
       2App   -0.592999     9Ap    -0.529500    10Ap    -0.460818
       3App   -0.356311

  @RHF Final Energy:  -437.73450630958649

   => Energetics <=

    Nuclear Repulsion Energy =             56.5243254466011464
    One-Electron Energy =                -715.4352526075721244
    Two-Electron Energy =                 221.1764208513845631
    Total Energy =                       -437.7345063095864361
      * MP2 total energy                      = -438.037844205158365
      * CCSD total energy                     = -438.073979556908341
*** Psi4 exiting successfully. Buy a developer a beer!
