                               Psi4 1.2a1.dev938

  ==> Input File <==

--------------------------------------------------------------------------
# Any line starting with the # character is a comment line
memory 250000 mb
molecule molecule{
1 2
C          0.0000000000        0.0000000000        0.0000000000
}

set {
  reference uhf
  basis aug-cc-pv(5+d)z
  scf_type OUT_OF_CORE
  freeze_core true
}

energy('ccsd')
--------------------------------------------------------------------------

    Molecular point group: d2h
    Geometry (in Angstrom), charge = 1, multiplicity = 2:

       Center              X                  Y                   Z               Mass
    ------------   -----------------  -----------------  -----------------  -----------------
           C          0.000000000000     0.000000000000     0.000000000000    12.000000000000

  Charge       = 1
  Multiplicity = 2
  Basis Set: AUG-CC-PV(5+D)Z
    Blend: AUG-CC-PV(5+D)Z

    Orbital Energies (a.u.)
    -----------------------

    Alpha Occupied:

       1Ag   -11.912495     2Ag    -1.223990     1B3u   -0.914429

    Alpha Virtual:

       1B2u   -0.362180     1B1u   -0.362180     3Ag    -0.123599
       2B3u   -0.088328     2B1u   -0.082443     2B2u   -0.082443
       4Ag     0.007775     1B3g    0.007775     1B1g    0.009979
       1B2g    0.009979     5Ag     0.010953     3B3u    0.067692
       3B1u    0.085582     3B2u    0.085582     6Ag     0.161366
       4B2u    0.314386     4B1u    0.314386     4B3u    0.319275
       1Au     0.319275     5B1u    0.322264     5B2u    0.322264
       5B3u    0.323267     7Ag     0.371001     2B1g    0.371749
       2B2g    0.371749     2B3g    0.376996     8Ag     0.376996
       6B3u    0.615974     6B1u    0.648819     6B2u    0.648819
       9Ag     1.246572     3B3g    1.246572     3B1g    1.254852
       3B2g    1.254852    10Ag     1.260795     4B3g    1.260795
      11Ag     1.263915     4B1g    1.264350     4B2g    1.264350
      12Ag     1.265657     7B2u    1.287901     7B1u    1.287901
       2Au     1.296866     7B3u    1.296866     8B2u    1.302246
       8B1u    1.302246     8B3u    1.304035    13Ag     1.352387
       5B1g    1.353590     5B2g    1.353590    14Ag     1.365614
       5B3g    1.365614     9B3u    2.269476     9B2u    2.287999
       9B1u    2.287999    10B2u    3.102645    10B1u    3.102645
       3Au     3.114442    10B3u    3.114442    11B1u    3.123687
      11B2u    3.123687     4Au     3.130329    11B3u    3.130329
      12B1u    3.134329    12B2u    3.134329    12B3u    3.135665
      13B2u    3.635363    13B1u    3.635363     5Au     3.650277
      13B3u    3.650277     6B3g    3.653729    15Ag     3.653729
      14B2u    3.659220    14B1u    3.659220    14B3u    3.662200
       6B1g    3.669571     6B2g    3.669571     7B3g    3.680893
      16Ag     3.680893     7B1g    3.687677     7B2g    3.687677
      17Ag     3.689936    18Ag     4.037697     8B3g    4.037697
       8B1g    4.040987     8B2g    4.040987    19Ag     4.042309
      20Ag     5.514511    15B2u    7.979765    15B1u    7.979765
      15B3u    7.985578    16B1u    8.442821    16B2u    8.442821
       6Au     8.463522    16B3u    8.463522    17B1u    8.479719
      17B2u    8.479719     7Au     8.491339    17B3u    8.491339
      18B1u    8.498332    18B2u    8.498332    18B3u    8.500667
      19B1u    9.535307    19B2u    9.535307    19B3u    9.558613
       8Au     9.558613    20B1u    9.572689    20B2u    9.572689
      20B3u    9.577397     9B3g    9.838979    21Ag     9.838979
       9B1g    9.863143     9B2g    9.863143    10B3g    9.880477
      22Ag     9.880477    10B2g    9.890906    10B1g    9.890906
      23Ag     9.894386    11B3g   11.407720    24Ag    11.407720
      11B2g   11.428372    11B1g   11.428372    25Ag    11.435377
      26Ag    33.576314

    Beta Occupied:

       1Ag   -11.882844     2Ag    -1.087340

    Beta Virtual:

       1B2u   -0.340362     1B1u   -0.340362     1B3u   -0.273708
       3Ag    -0.119090     2B1u   -0.080842     2B2u   -0.080842
       2B3u   -0.073229     4Ag     0.007844     1B3g    0.007844
       1B1g    0.014117     1B2g    0.014117     5Ag     0.016319
       3B1u    0.089804     3B2u    0.089804     3B3u    0.108086
       6Ag     0.173873     4B2u    0.314325     4B1u    0.314325
       1Au     0.320784     4B3u    0.320784     5B2u    0.324744
       5B1u    0.324744     5B3u    0.326085     2B3g    0.378138
       7Ag     0.378138     2B1g    0.398544     2B2g    0.398544
       8Ag     0.406000     6B1u    0.657403     6B2u    0.657403
       6B3u    0.695557     3B3g    1.246376     9Ag     1.246376
       3B1g    1.257177     3B2g    1.257177    10Ag     1.265019
       4B3g    1.265019     4B1g    1.269781     4B2g    1.269781
      11Ag     1.271378     7B2u    1.288177     7B1u    1.288177
      12Ag     1.295195     2Au     1.308328     7B3u    1.308328
       8B2u    1.320678     8B1u    1.320678     8B3u    1.324855
      13Ag     1.370951     5B3g    1.370951     5B1g    1.411418
       5B2g    1.411418    14Ag     1.426176     9B2u    2.300010
       9B1u    2.300010     9B3u    2.360069    10B2u    3.102341
      10B1u    3.102341     3Au     3.117408    10B3u    3.117408
      11B1u    3.129241    11B2u    3.129241     4Au     3.137758
      11B3u    3.137758    12B1u    3.142895    12B2u    3.142895
      12B3u    3.144612    13B2u    3.638183    13B1u    3.638183
       6B3g    3.654127    15Ag     3.654127     5Au     3.675958
      13B3u    3.675958     6B1g    3.679279     6B2g    3.679279
       7B3g    3.697535    16Ag     3.697535    14B2u    3.699117
      14B1u    3.699117    14B3u    3.706936     7B1g    3.708620
       7B2g    3.708620    17Ag     3.712338    18Ag     4.046281
       8B3g    4.046281     8B1g    4.100977     8B2g    4.100977
      19Ag     4.120281    20Ag     5.545299    15B2u    7.990137
      15B1u    7.990137    15B3u    8.049862    16B1u    8.443460
      16B2u    8.443460    16B3u    8.471910     6Au     8.471910
      17B1u    8.494216    17B2u    8.494216     7Au     8.510249
      17B3u    8.510249    18B1u    8.519909    18B2u    8.519909
      18B3u    8.523136    19B1u    9.540113    19B2u    9.540113
      19B3u    9.586662     8Au     9.586662    20B1u    9.615042
      20B2u    9.615042    20B3u    9.624591     9B3g    9.841426
      21Ag     9.841426     9B1g    9.879736     9B2g    9.879736
      10B3g    9.907376    22Ag     9.907376    10B2g    9.924075
      10B1g    9.924075    23Ag     9.929662    11B3g   11.414663
      24Ag    11.414663    11B2g   11.467979    11B1g   11.467979
      25Ag    11.486270    26Ag    33.588392

    Final Occupation by Irrep:
             Ag   B1g   B2g   B3g    Au   B1u   B2u   B3u
    DOCC [     2,    0,    0,    0,    0,    0,    0,    0 ]
    SOCC [     0,    0,    0,    0,    0,    0,    0,    1 ]

  Energy converged.

  @UHF Final Energy:   -37.29678534590973

   => Energetics <=

    Nuclear Repulsion Energy =              0.0000000000000000
    One-Electron Energy =                 -47.5724718141483010
    Two-Electron Energy =                  10.2756864682385736
    PCM Polarization Energy =               0.0000000000000000
    Total Energy =                        -37.2967853459097256

    Alert: EFP and PCM quantities not currently incorporated into SCF psivars.
  UHF NO Occupations:
  HONO-2 :    1 Ag 1.9999973
  HONO-1 :    2 Ag 1.9966589
  HONO-0 :    1B3u 1.0000000
  LUNO+0 :    3 Ag 0.0033411
  LUNO+1 :    4 Ag 0.0000027
  LUNO+2 :    5 Ag 0.0000000
  LUNO+3 :    2B3u 0.0000000

Properties will be evaluated at   0.000000,   0.000000,   0.000000 Bohr

Properties computed using the SCF density matrix

  Nuclear Dipole Moment: (a.u.)
     X:     0.0000      Y:     0.0000      Z:     0.0000

  Electronic Dipole Moment: (a.u.)
     X:     0.0000      Y:     0.0000      Z:     0.0000

  Dipole Moment: (a.u.)
     X:     0.0000      Y:     0.0000      Z:     0.0000     Total:     0.0000

  Dipole Moment: (Debye)
     X:     0.0000      Y:     0.0000      Z:     0.0000     Total:     0.0000

*** tstop() called on cqc05 at Fri Aug 21 06:49:22 2020
Module time:
	user time   =       5.91 seconds =       0.10 minutes
	system time =       0.16 seconds =       0.00 minutes
	total time  =          5 seconds =       0.08 minutes
Total time:
	user time   =       5.91 seconds =       0.10 minutes
	system time =       0.16 seconds =       0.00 minutes
	total time  =          5 seconds =       0.08 minutes

*** tstart() called on cqc05
*** at Fri Aug 21 06:49:22 2020

	Wfn Parameters:
	--------------------
	Wavefunction         = CCSD
	Number of irreps     = 8
	Number of MOs        = 127
	Number of active MOs = 126
	AO-Basis             = NONE
	Semicanonical        = false
	Reference            = UHF
	Print Level          = 1

	IRREP	# MOs	# FZDC	# DOCC	# SOCC	# VIRT	# FZVR
	-----	-----	------	------	------	------	------
	 Ag	   26	    1	    1	    0	    24	    0
	 B1g	   11	    0	    0	    0	    11	    0
	 B2g	   11	    0	    0	    0	    11	    0
	 B3g	   11	    0	    0	    0	    11	    0
	 Au	   8	    0	    0	    0	    8	    0
	 B1u	   20	    0	    0	    0	    20	    0
	 B2u	   20	    0	    0	    0	    20	    0
	 B3u	   20	    0	    0	    1	    19	    0
	Transforming integrals...
	IWL integrals will be deleted.
	(OO|OO)...
	Presorting SO-basis two-electron integrals.
	Sorting File: SO Ints (nn|nn) nbuckets = 1
	Transforming the one-electron integrals and constructing Fock matrices
	Starting AA/AB first half-transformation.
	Sorting AA/AB half-transformed integrals.
	Starting BB first half-transformation.
	Sorting BB half-transformed integrals.
	First half integral transformation complete.
	Starting AA second half-transformation.
	Starting AB second half-transformation.
	Starting BB second half-transformation.
	Two-electron integral transformation complete.
	(OO|OV)...
	Starting AA second half-transformation.
	Starting AB second half-transformation.
	Starting BB second half-transformation.
	Two-electron integral transformation complete.
	(OO|VV)...
	Starting AA second half-transformation.
	Starting AB second half-transformation.
	Starting BB second half-transformation.
	Two-electron integral transformation complete.
	(OV|OO)...
	Starting AA/AB first half-transformation.
	Sorting AA/AB half-transformed integrals.
	Starting BB first half-transformation.
	Sorting BB half-transformed integrals.
	First half integral transformation complete.
	Starting AA second half-transformation.
	Starting AB second half-transformation.
	Starting BB second half-transformation.
	Two-electron integral transformation complete.
	(OV|OV)...
	Starting AA second half-transformation.
	Starting AB second half-transformation.
	Starting BB second half-transformation.
	Two-electron integral transformation complete.
	(OV|VV)...
	Starting AA second half-transformation.
	Starting AB second half-transformation.
	Starting BB second half-transformation.
	Two-electron integral transformation complete.
	(VV|OO)...
	Starting AA/AB first half-transformation.
	Sorting AA/AB half-transformed integrals.
	Starting BB first half-transformation.
	Sorting BB half-transformed integrals.
	First half integral transformation complete.
	Starting AA second half-transformation.
	Starting AB second half-transformation.
	Starting BB second half-transformation.
	Two-electron integral transformation complete.
	(VV|OV)...
	Starting AA second half-transformation.
	Starting AB second half-transformation.
	Starting BB second half-transformation.
	Two-electron integral transformation complete.
	(VV|VV)...
	Starting AA second half-transformation.
	Starting AB second half-transformation.
	Starting BB second half-transformation.
	Two-electron integral transformation complete.
	Frozen core energy     =    -32.36040632364551

	Size of irrep 0 of <AB|CD> integrals:      1.040 (MW) /      8.323 (MB)
	Size of irrep 1 of <AB|CD> integrals:      0.856 (MW) /      6.845 (MB)
	Size of irrep 2 of <AB|CD> integrals:      0.856 (MW) /      6.845 (MB)
	Size of irrep 3 of <AB|CD> integrals:      0.878 (MW) /      7.024 (MB)
	Size of irrep 4 of <AB|CD> integrals:      0.707 (MW) /      5.658 (MB)
	Size of irrep 5 of <AB|CD> integrals:      0.994 (MW) /      7.952 (MB)
	Size of irrep 6 of <AB|CD> integrals:      0.994 (MW) /      7.952 (MB)
	Size of irrep 7 of <AB|CD> integrals:      0.968 (MW) /      7.746 (MB)
	Total:                                     7.293 (MW) /     58.345 (MB)

	Size of irrep 0 of <ab|cd> integrals:      1.080 (MW) /      8.636 (MB)
	Size of irrep 1 of <ab|cd> integrals:      0.893 (MW) /      7.144 (MB)
	Size of irrep 2 of <ab|cd> integrals:      0.893 (MW) /      7.144 (MB)
	Size of irrep 3 of <ab|cd> integrals:      0.893 (MW) /      7.144 (MB)
	Size of irrep 4 of <ab|cd> integrals:      0.726 (MW) /      5.807 (MB)
	Size of irrep 5 of <ab|cd> integrals:      1.016 (MW) /      8.129 (MB)
	Size of irrep 6 of <ab|cd> integrals:      1.016 (MW) /      8.129 (MB)
	Size of irrep 7 of <ab|cd> integrals:      1.016 (MW) /      8.129 (MB)
	Total:                                     7.533 (MW) /     60.262 (MB)

	Size of irrep 0 of <Ab|Cd> integrals:      4.765 (MW) /     38.124 (MB)
	Size of irrep 1 of <Ab|Cd> integrals:      3.497 (MW) /     27.975 (MB)
	Size of irrep 2 of <Ab|Cd> integrals:      3.497 (MW) /     27.975 (MB)
	Size of irrep 3 of <Ab|Cd> integrals:      3.542 (MW) /     28.335 (MB)
	Size of irrep 4 of <Ab|Cd> integrals:      2.866 (MW) /     22.930 (MB)
	Size of irrep 5 of <Ab|Cd> integrals:      4.020 (MW) /     32.160 (MB)
	Size of irrep 6 of <Ab|Cd> integrals:      4.020 (MW) /     32.160 (MB)
	Size of irrep 7 of <Ab|Cd> integrals:      3.968 (MW) /     31.745 (MB)
	Total:                                    30.176 (MW) /    241.405 (MB)

	Size of irrep 0 of <IA|BC> integrals:      0.093 (MW) /      0.744 (MB)
	Size of irrep 1 of <IA|BC> integrals:      0.057 (MW) /      0.459 (MB)
	Size of irrep 2 of <IA|BC> integrals:      0.057 (MW) /      0.459 (MB)
	Size of irrep 3 of <IA|BC> integrals:      0.036 (MW) /      0.285 (MB)
	Size of irrep 4 of <IA|BC> integrals:      0.032 (MW) /      0.256 (MB)
	Size of irrep 5 of <IA|BC> integrals:      0.062 (MW) /      0.495 (MB)
	Size of irrep 6 of <IA|BC> integrals:      0.062 (MW) /      0.495 (MB)
	Size of irrep 7 of <IA|BC> integrals:      0.085 (MW) /      0.677 (MB)
	Total:                                     0.484 (MW) /      3.869 (MB)

	Size of irrep 0 of <ia|bc> integrals:      0.053 (MW) /      0.423 (MB)
	Size of irrep 1 of <ia|bc> integrals:      0.021 (MW) /      0.166 (MB)
	Size of irrep 2 of <ia|bc> integrals:      0.021 (MW) /      0.166 (MB)
	Size of irrep 3 of <ia|bc> integrals:      0.021 (MW) /      0.166 (MB)
	Size of irrep 4 of <ia|bc> integrals:      0.014 (MW) /      0.109 (MB)
	Size of irrep 5 of <ia|bc> integrals:      0.040 (MW) /      0.323 (MB)
	Size of irrep 6 of <ia|bc> integrals:      0.040 (MW) /      0.323 (MB)
	Size of irrep 7 of <ia|bc> integrals:      0.040 (MW) /      0.323 (MB)
	Total:                                     0.250 (MW) /      1.999 (MB)

	Size of irrep 0 of <Ia|Bc> integrals:      0.096 (MW) /      0.768 (MB)
	Size of irrep 1 of <Ia|Bc> integrals:      0.058 (MW) /      0.464 (MB)
	Size of irrep 2 of <Ia|Bc> integrals:      0.058 (MW) /      0.464 (MB)
	Size of irrep 3 of <Ia|Bc> integrals:      0.036 (MW) /      0.286 (MB)
	Size of irrep 4 of <Ia|Bc> integrals:      0.032 (MW) /      0.257 (MB)
	Size of irrep 5 of <Ia|Bc> integrals:      0.062 (MW) /      0.497 (MB)
	Size of irrep 6 of <Ia|Bc> integrals:      0.062 (MW) /      0.497 (MB)
	Size of irrep 7 of <Ia|Bc> integrals:      0.088 (MW) /      0.701 (MB)
	Total:                                     0.492 (MW) /      3.935 (MB)

	Size of irrep 0 of <iA|bC> integrals:      0.052 (MW) /      0.419 (MB)
	Size of irrep 1 of <iA|bC> integrals:      0.021 (MW) /      0.165 (MB)
	Size of irrep 2 of <iA|bC> integrals:      0.021 (MW) /      0.165 (MB)
	Size of irrep 3 of <iA|bC> integrals:      0.021 (MW) /      0.166 (MB)
	Size of irrep 4 of <iA|bC> integrals:      0.014 (MW) /      0.108 (MB)
	Size of irrep 5 of <iA|bC> integrals:      0.040 (MW) /      0.321 (MB)
	Size of irrep 6 of <iA|bC> integrals:      0.040 (MW) /      0.321 (MB)
	Size of irrep 7 of <iA|bC> integrals:      0.038 (MW) /      0.303 (MB)
	Total:                                     0.246 (MW) /      1.967 (MB)

	Size of irrep 0 of tIjAb amplitudes:       0.002 (MW) /      0.017 (MB)
	Size of irrep 1 of tIjAb amplitudes:       0.000 (MW) /      0.000 (MB)
	Size of irrep 2 of tIjAb amplitudes:       0.000 (MW) /      0.000 (MB)
	Size of irrep 3 of tIjAb amplitudes:       0.000 (MW) /      0.000 (MB)
	Size of irrep 4 of tIjAb amplitudes:       0.000 (MW) /      0.000 (MB)
	Size of irrep 5 of tIjAb amplitudes:       0.000 (MW) /      0.000 (MB)
	Size of irrep 6 of tIjAb amplitudes:       0.000 (MW) /      0.000 (MB)
	Size of irrep 7 of tIjAb amplitudes:       0.002 (MW) /      0.016 (MB)
	Total:                                     0.004 (MW) /      0.033 (MB)

	Nuclear Rep. energy          =      0.00000000000000
	SCF energy                   =    -37.29678534590973
	One-electron energy          =     -6.64699814642374
	Two-electron (AA) energy     =      0.48735771011183
	Two-electron (BB) energy     =      0.00000000000000
	Two-electron (AB) energy     =      1.22326141404771
	Two-electron energy          =      1.71061912415955
	Reference energy             =    -37.29678534590971

*** tstop() called on cqc05 at Fri Aug 21 06:49:26 2020
Module time:
	user time   =       2.30 seconds =       0.04 minutes
	system time =       1.42 seconds =       0.02 minutes
	total time  =          4 seconds =       0.07 minutes
Total time:
	user time   =       8.21 seconds =       0.14 minutes
	system time =       1.58 seconds =       0.03 minutes
	total time  =          9 seconds =       0.15 minutes

*** tstart() called on cqc05
*** at Fri Aug 21 06:49:26 2020

            **************************
            *                        *
            *        CCENERGY        *
            *                        *
            **************************

    Nuclear Rep. energy (wfn)     =    0.000000000000000
    SCF energy          (wfn)     =  -37.296785345909726
    Reference energy    (file100) =  -37.296785345909711

    Input parameters:
    -----------------
    Wave function   =     CCSD
    Reference wfn   =     UHF
    Brueckner       =     No
    Memory (Mbytes) =     250000.0
    Maxiter         =     50
    R_Convergence   =     1.0e-07
    E_Convergence   =     1.0e-06
    Restart         =     Yes
    DIIS            =     Yes
    AO Basis        =     NONE
    ABCD            =     NEW
    Cache Level     =     2
    Cache Type      =     LRU
    Print Level     =     1
    Num. of threads =     4
    # Amps to Print =     10
    Print MP2 Amps? =     No
    Analyze T2 Amps =     No
    Print Pair Ener =     No
    Local CC        =     No
    SCS-MP2         =     False
    SCSN-MP2        =     False
    SCS-CCSD        =     False

MP2 correlation energy -0.0561456160235917
                Solving CC Amplitude Equations
                ------------------------------
  Iter             Energy              RMS        T1Diag      D1Diag    New D1Diag    D2Diag
  ----     ---------------------    ---------   ----------  ----------  ----------   --------
     0        -0.056145616023592    0.000e+00    0.000000    0.000000    0.000000    0.000000
     1        -0.067984533248600    5.269e-02    0.007344    0.000000    0.000000    0.000000
     2        -0.077827334196975    2.655e-02    0.013835    0.000000    0.000000    0.000000
     3        -0.077877661897759    3.664e-03    0.014300    0.000000    0.000000    0.000000
     4        -0.078051047735695    7.449e-04    0.014324    0.000000    0.000000    0.000000
     5        -0.078022445450815    1.720e-04    0.014280    0.000000    0.000000    0.000000
     6        -0.078021501283821    3.717e-05    0.014272    0.000000    0.000000    0.000000
     7        -0.078023123333003    7.935e-06    0.014273    0.000000    0.000000    0.000000

      * MP2 total energy                      =  -37.352930961933303
      * CCSD total energy                     =  -37.374808057156933
*** Psi4 exiting successfully. Buy a developer a beer!
