                               Psi4 1.2a1.dev939

  ==> Input File <==

--------------------------------------------------------------------------
# Any line starting with the # character is a comment line
memory 250000 mb
molecule molecule{
1 2
C          0.0000000000        0.0000000000        0.0000000000
}

set {
  reference uhf
  basis aug-cc-pv(6+d)z
  scf_type OUT_OF_CORE
  freeze_core true
}

energy('ccsd')
--------------------------------------------------------------------------

    Molecular point group: d2h
    Geometry (in Angstrom), charge = 1, multiplicity = 2:

       Center              X                  Y                   Z               Mass
    ------------   -----------------  -----------------  -----------------  -----------------
           C          0.000000000000     0.000000000000     0.000000000000    12.000000000000

  Charge       = 1
  Multiplicity = 2
  Basis Set: AUG-CC-PV(6+D)Z
    Blend: AUG-CC-PV(6+D)Z

    Orbital Energies (a.u.)
    -----------------------

    Alpha Occupied:

       1Ag   -11.912419     2Ag    -1.223982     1B1u   -0.914442

    Alpha Virtual:

       1B3u   -0.362160     1B2u   -0.362160     3Ag    -0.126373
       2B1u   -0.089772     2B3u   -0.084473     2B2u   -0.084473
       4Ag    -0.003387     1B1g   -0.003387     1B3g   -0.001233
       1B2g   -0.001233     5Ag    -0.000338     3B1u    0.030180
       3B2u    0.043099     3B3u    0.043099     6Ag     0.093700
       4B3u    0.246077     4B2u    0.246077     4B1u    0.250114
       1Au     0.250114     5B2u    0.252565     5B3u    0.252565
       5B1u    0.253389     7Ag     0.304694     2B3g    0.305063
       2B2g    0.305063     8Ag     0.308390     2B1g    0.308390
       6B1u    0.396710     6B2u    0.423520     6B3u    0.423520
       9Ag     0.808439    10Ag     0.955578     3B1g    0.955578
       3B2g    0.962118     3B3g    0.962118    11Ag     0.966823
       4B1g    0.966823     4B3g    0.969648     4B2g    0.969648
      12Ag     0.970589     7B3u    1.010584     7B2u    1.010584
       7B1u    1.018391     2Au     1.018391     8B2u    1.023047
       8B3u    1.023047     8B1u    1.024597    13Ag     1.064465
       5B3g    1.066694     5B2g    1.066694    14Ag     1.077194
       5B1g    1.077194     9B1u    1.406976     9B2u    1.429791
       9B3u    1.429791    10B3u    2.260875    10B2u    2.260875
      10B1u    2.269725     3Au     2.269725    11B3u    2.276666
      11B2u    2.276666    11B1u    2.281655     4Au     2.281655
      12B2u    2.284661    12B3u    2.284661    12B1u    2.285665
      13B3u    2.650345    13B2u    2.650345    13B1u    2.662531
       5Au     2.662531    14B2u    2.669792    14B3u    2.669792
      14B1u    2.672206    15Ag     2.820144     6B1g    2.820144
       6B2g    2.833328     6B3g    2.833328    16Ag     2.842585
       7B1g    2.842585     7B3g    2.847990     7B2g    2.847990
      17Ag     2.849753    18Ag     2.911948     8B3g    2.912779
       8B2g    2.912779    19Ag     2.913550     8B1g    2.913550
      20Ag     2.999244    15B2u    3.978184    15B3u    3.978184
      15B1u    3.979693    21Ag     4.908337     9B1g    4.908337
       9B2g    4.920419     9B3g    4.920419    10B1g    4.930380
      22Ag     4.930380    10B3g    4.938175    10B2g    4.938175
      23Ag     4.943769    11B1g    4.943769    11B3g    4.947135
      11B2g    4.947135    24Ag     4.948259    16B3u    5.729267
      16B2u    5.729267    16B1u    5.745847     6Au     5.745847
      17B3u    5.758836    17B2u    5.758836    17B1u    5.768163
       7Au     5.768163    18B2u    5.773780    18B3u    5.773780
      18B1u    5.775655    19B2u    6.172105    19B3u    6.172105
      19B1u    6.192742     8Au     6.192742    20B2u    6.205169
      20B3u    6.205169    20B1u    6.209320    25Ag     6.853189
      12B1g    6.853189    12B2g    6.874505    12B3g    6.874505
      26Ag     6.889712    13B1g    6.889712    13B3g    6.898825
      13B2g    6.898825    27Ag     6.901861    28Ag     7.416839
      14B1g    7.416839    14B3g    7.434967    14B2g    7.434967
      29Ag     7.441166    30Ag    10.207162    31Ag    11.975989
      15B1g   11.975989    15B3g   11.996085    15B2g   11.996085
      32Ag    12.012628    16B1g   12.012628    16B3g   12.025557
      16B2g   12.025557    33Ag    12.034827    17B1g   12.034827
      17B3g   12.040402    17B2g   12.040402    34Ag    12.042263
      21B2u   12.358094    21B3u   12.358094    21B1u   12.375087
      22B2u   13.984979    22B3u   13.984979     9Au    14.009332
      22B1u   14.009332    23B2u   14.028250    23B3u   14.028250
      23B1u   14.041793    10Au    14.041793    24B2u   14.049935
      24B3u   14.049935    24B1u   14.052652    25B3u   14.105680
      25B2u   14.105680    25B1u   14.132668    11Au    14.132668
      26B2u   14.148991    26B3u   14.148991    26B1u   14.154455
      35Ag    16.246936    18B1g   16.246936    18B2g   16.273962
      18B3g   16.273962    36Ag    16.293341    19B1g   16.293341
      19B3g   16.304997    19B2g   16.304997    37Ag    16.308887
      38Ag    18.701249    20B1g   18.701249    20B3g   18.728070
      20B2g   18.728070    39Ag    18.737130    40Ag    53.037153

    Beta Occupied:

       1Ag   -11.882805     2Ag    -1.087320

    Beta Virtual:

       1B2u   -0.340344     1B3u   -0.340344     1B1u   -0.273693
       3Ag    -0.122247     2B3u   -0.083036     2B2u   -0.083036
       2B1u   -0.076237     4Ag    -0.003333     1B1g   -0.003333
       1B3g    0.002096     1B2g    0.002096     5Ag     0.003968
       3B2u    0.046222     3B3u    0.046222     3B1u    0.059984
       6Ag     0.102781     4B2u    0.246033     4B3u    0.246033
       4B1u    0.251049     1Au     0.251049     5B2u    0.254099
       5B3u    0.254099     5B1u    0.255131     7Ag     0.309181
       2B1g    0.309181     2B3g    0.326055     2B2g    0.326055
       8Ag     0.332130     6B2u    0.430014     6B3u    0.430014
       6B1u    0.458462     9Ag     0.830210    10Ag     0.955434
       3B1g    0.955434     3B3g    0.963434     3B2g    0.963434
      11Ag     0.969242     4B1g    0.969242     4B3g    0.972769
       4B2g    0.972769    12Ag     0.973951     7B3u    1.010631
       7B2u    1.010631     7B1u    1.026035     2Au     1.026035
       8B2u    1.035346     8B3u    1.035346     8B1u    1.038491
      13Ag     1.081071     5B1g    1.081071     5B3g    1.114851
       5B2g    1.114851    14Ag     1.127123     9B2u    1.439372
       9B3u    1.439372     9B1u    1.486741    10B3u    2.260624
      10B2u    2.260624    10B1u    2.271278     3Au     2.271278
      11B2u    2.279648    11B3u    2.279648    11B1u    2.285674
       4Au     2.285674    12B2u    2.289308    12B3u    2.289308
      12B1u    2.290523    13B3u    2.651914    13B2u    2.651914
      13B1u    2.681801     5Au     2.681801    14B2u    2.699985
      14B3u    2.699985    14B1u    2.706105    15Ag     2.820153
       6B1g    2.820153     6B3g    2.840120     6B2g    2.840120
      16Ag     2.854605     7B1g    2.854605     7B3g    2.863403
       7B2g    2.863403    17Ag     2.866353    18Ag     2.920659
       8B1g    2.920659     8B3g    2.969072     8B2g    2.969072
      19Ag     2.985471    20Ag     3.028624    15B2u    3.989675
      15B3u    3.989675    15B1u    4.054165    21Ag     4.908005
       9B1g    4.908005     9B2g    4.922456     9B3g    4.922456
      10B1g    4.934394    22Ag     4.934394    10B3g    4.943751
      10B2g    4.943751    23Ag     4.950474    11B1g    4.950474
      11B3g    4.954524    11B2g    4.954524    24Ag     4.955877
      16B3u    5.729302    16B2u    5.729302    16B1u    5.751345
       6Au     5.751345    17B2u    5.768654    17B3u    5.768654
      17B1u    5.781110     7Au     5.781110    18B2u    5.788622
      18B3u    5.788622    18B1u    5.791132    19B3u    6.175851
      19B2u    6.175851    19B1u    6.218156     8Au     6.218156
      20B2u    6.243930    20B3u    6.243930    20B1u    6.252596
      25Ag     6.854648    12B1g    6.854648    12B3g    6.887906
      12B2g    6.887906    26Ag     6.911861    13B1g    6.911861
      13B3g    6.926333    13B2g    6.926333    27Ag     6.931176
      28Ag     7.424408    14B1g    7.424408    14B3g    7.480162
      14B2g    7.480162    29Ag     7.499414    30Ag    10.230318
      31Ag    11.976248    15B1g   11.976248    15B2g   12.001244
      15B3g   12.001244    32Ag    12.021850    16B1g   12.021850
      16B3g   12.037976    16B2g   12.037976    33Ag    12.049548
      17B1g   12.049548    17B3g   12.056512    17B2g   12.056512
      34Ag    12.058838    21B2u   12.366620    21B3u   12.366620
      21B1u   12.422729    22B2u   13.986280    22B3u   13.986280
      22B1u   14.018866     9Au    14.018866    23B2u   14.043883
      23B3u   14.043883    23B1u   14.061904    10Au    14.061904
      24B2u   14.072762    24B3u   14.072762    24B1u   14.076389
      25B3u   14.110284    25B2u   14.110284    25B1u   14.155735
      11Au    14.155735    26B2u   14.183349    26B3u   14.183349
      26B1u   14.192620    35Ag    16.249598    18B1g   16.249598
      18B3g   16.288631    18B2g   16.288631    36Ag    16.316694
      19B1g   16.316694    19B3g   16.333607    19B2g   16.333607
      37Ag    16.339257    38Ag    18.706423    20B1g   18.706423
      20B3g   18.755159    20B2g   18.755159    39Ag    18.771718
      40Ag    53.045225

    Final Occupation by Irrep:
             Ag   B1g   B2g   B3g    Au   B1u   B2u   B3u
    DOCC [     2,    0,    0,    0,    0,    0,    0,    0 ]
    SOCC [     0,    0,    0,    0,    0,    1,    0,    0 ]

  Energy converged.

  @UHF Final Energy:   -37.29683389181049

   => Energetics <=

    Nuclear Repulsion Energy =              0.0000000000000000
    One-Electron Energy =                 -47.5726991838341036
    Two-Electron Energy =                  10.2758652920236102
    Total Energy =                        -37.2968338918104934

  UHF NO Occupations:
  HONO-2 :    1 Ag 1.9999973
  HONO-1 :    2 Ag 1.9966574
  HONO-0 :    1B1u 1.0000000
  LUNO+0 :    3 Ag 0.0033426
  LUNO+1 :    4 Ag 0.0000027
  LUNO+2 :    5 Ag 0.0000000
  LUNO+3 :    2B1u 0.0000000

Properties will be evaluated at   0.000000,   0.000000,   0.000000 Bohr

Properties computed using the SCF density matrix

  Nuclear Dipole Moment: (a.u.)
     X:     0.0000      Y:     0.0000      Z:     0.0000

  Electronic Dipole Moment: (a.u.)
     X:     0.0000      Y:     0.0000      Z:     0.0000

  Dipole Moment: (a.u.)
     X:     0.0000      Y:     0.0000      Z:     0.0000     Total:     0.0000

  Dipole Moment: (Debye)
     X:     0.0000      Y:     0.0000      Z:     0.0000     Total:     0.0000

*** tstop() called on n412-071.vsc4.prov at Mon Nov  2 10:39:27 2020
Module time:
	user time   =     248.02 seconds =       4.13 minutes
	system time =       6.09 seconds =       0.10 minutes
	total time  =         75 seconds =       1.25 minutes
Total time:
	user time   =     248.02 seconds =       4.13 minutes
	system time =       6.09 seconds =       0.10 minutes
	total time  =         75 seconds =       1.25 minutes

*** tstart() called on n412-071.vsc4.prov
*** at Mon Nov  2 10:39:27 2020

	Wfn Parameters:
	--------------------
	Wavefunction         = CCSD
	Number of irreps     = 8
	Number of MOs        = 189
	Number of active MOs = 188
	AO-Basis             = NONE
	Semicanonical        = false
	Reference            = UHF
	Print Level          = 1

	IRREP	# MOs	# FZDC	# DOCC	# SOCC	# VIRT	# FZVR
	-----	-----	------	------	------	------	------
	 Ag	   40	    1	    1	    0	    38	    0
	 B1g	   20	    0	    0	    0	    20	    0
	 B2g	   20	    0	    0	    0	    20	    0
	 B3g	   20	    0	    0	    0	    20	    0
	 Au	   11	    0	    0	    0	    11	    0
	 B1u	   26	    0	    0	    1	    25	    0
	 B2u	   26	    0	    0	    0	    26	    0
	 B3u	   26	    0	    0	    0	    26	    0
	Transforming integrals...
	IWL integrals will be deleted.
	(OO|OO)...
	Presorting SO-basis two-electron integrals.
	Sorting File: SO Ints (nn|nn) nbuckets = 1
	Transforming the one-electron integrals and constructing Fock matrices
	Starting AA/AB first half-transformation.
	Sorting AA/AB half-transformed integrals.
	Starting BB first half-transformation.
	Sorting BB half-transformed integrals.
	First half integral transformation complete.
	Starting AA second half-transformation.
	Starting AB second half-transformation.
	Starting BB second half-transformation.
	Two-electron integral transformation complete.
	(OO|OV)...
	Starting AA second half-transformation.
	Starting AB second half-transformation.
	Starting BB second half-transformation.
	Two-electron integral transformation complete.
	(OO|VV)...
	Starting AA second half-transformation.
	Starting AB second half-transformation.
	Starting BB second half-transformation.
	Two-electron integral transformation complete.
	(OV|OO)...
	Starting AA/AB first half-transformation.
	Sorting AA/AB half-transformed integrals.
	Starting BB first half-transformation.
	Sorting BB half-transformed integrals.
	First half integral transformation complete.
	Starting AA second half-transformation.
	Starting AB second half-transformation.
	Starting BB second half-transformation.
	Two-electron integral transformation complete.
	(OV|OV)...
	Starting AA second half-transformation.
	Starting AB second half-transformation.
	Starting BB second half-transformation.
	Two-electron integral transformation complete.
	(OV|VV)...
	Starting AA second half-transformation.
	Starting AB second half-transformation.
	Starting BB second half-transformation.
	Two-electron integral transformation complete.
	(VV|OO)...
	Starting AA/AB first half-transformation.
	Sorting AA/AB half-transformed integrals.
	Starting BB first half-transformation.
	Sorting BB half-transformed integrals.
	First half integral transformation complete.
	Starting AA second half-transformation.
	Starting AB second half-transformation.
	Starting BB second half-transformation.
	Two-electron integral transformation complete.
	(VV|OV)...
	Starting AA second half-transformation.
	Starting AB second half-transformation.
	Starting BB second half-transformation.
	Two-electron integral transformation complete.
	(VV|VV)...
	Starting AA second half-transformation.
	Starting AB second half-transformation.
	Starting BB second half-transformation.
	Two-electron integral transformation complete.
	Frozen core energy     =    -32.36041906447074

	Size of irrep 0 of <AB|CD> integrals:      5.189 (MW) /     41.514 (MB)
	Size of irrep 1 of <AB|CD> integrals:      4.456 (MW) /     35.651 (MB)
	Size of irrep 2 of <AB|CD> integrals:      4.393 (MW) /     35.146 (MB)
	Size of irrep 3 of <AB|CD> integrals:      4.393 (MW) /     35.146 (MB)
	Size of irrep 4 of <AB|CD> integrals:      3.834 (MW) /     30.670 (MB)
	Size of irrep 5 of <AB|CD> integrals:      4.884 (MW) /     39.073 (MB)
	Size of irrep 6 of <AB|CD> integrals:      4.964 (MW) /     39.712 (MB)
	Size of irrep 7 of <AB|CD> integrals:      4.964 (MW) /     39.712 (MB)
	Total:                                    37.078 (MW) /    296.623 (MB)

	Size of irrep 0 of <ab|cd> integrals:      5.304 (MW) /     42.430 (MB)
	Size of irrep 1 of <ab|cd> integrals:      4.503 (MW) /     36.023 (MB)
	Size of irrep 2 of <ab|cd> integrals:      4.503 (MW) /     36.023 (MB)
	Size of irrep 3 of <ab|cd> integrals:      4.503 (MW) /     36.023 (MB)
	Size of irrep 4 of <ab|cd> integrals:      3.912 (MW) /     31.300 (MB)
	Size of irrep 5 of <ab|cd> integrals:      5.054 (MW) /     40.428 (MB)
	Size of irrep 6 of <ab|cd> integrals:      5.054 (MW) /     40.428 (MB)
	Size of irrep 7 of <ab|cd> integrals:      5.054 (MW) /     40.428 (MB)
	Total:                                    37.885 (MW) /    303.084 (MB)

	Size of irrep 0 of <Ab|Cd> integrals:     22.724 (MW) /    181.794 (MB)
	Size of irrep 1 of <Ab|Cd> integrals:     17.918 (MW) /    143.346 (MB)
	Size of irrep 2 of <Ab|Cd> integrals:     17.792 (MW) /    142.332 (MB)
	Size of irrep 3 of <Ab|Cd> integrals:     17.792 (MW) /    142.332 (MB)
	Size of irrep 4 of <Ab|Cd> integrals:     15.492 (MW) /    123.937 (MB)
	Size of irrep 5 of <Ab|Cd> integrals:     19.874 (MW) /    158.990 (MB)
	Size of irrep 6 of <Ab|Cd> integrals:     20.035 (MW) /    160.277 (MB)
	Size of irrep 7 of <Ab|Cd> integrals:     20.035 (MW) /    160.277 (MB)
	Total:                                   151.661 (MW) /   1213.285 (MB)

	Size of irrep 0 of <IA|BC> integrals:      0.299 (MW) /      2.390 (MB)
	Size of irrep 1 of <IA|BC> integrals:      0.131 (MW) /      1.047 (MB)
	Size of irrep 2 of <IA|BC> integrals:      0.193 (MW) /      1.543 (MB)
	Size of irrep 3 of <IA|BC> integrals:      0.193 (MW) /      1.543 (MB)
	Size of irrep 4 of <IA|BC> integrals:      0.121 (MW) /      0.971 (MB)
	Size of irrep 5 of <IA|BC> integrals:      0.278 (MW) /      2.228 (MB)
	Size of irrep 6 of <IA|BC> integrals:      0.205 (MW) /      1.640 (MB)
	Size of irrep 7 of <IA|BC> integrals:      0.205 (MW) /      1.640 (MB)
	Total:                                     1.625 (MW) /     13.001 (MB)

	Size of irrep 0 of <ia|bc> integrals:      0.182 (MW) /      1.457 (MB)
	Size of irrep 1 of <ia|bc> integrals:      0.085 (MW) /      0.679 (MB)
	Size of irrep 2 of <ia|bc> integrals:      0.085 (MW) /      0.679 (MB)
	Size of irrep 3 of <ia|bc> integrals:      0.085 (MW) /      0.679 (MB)
	Size of irrep 4 of <ia|bc> integrals:      0.044 (MW) /      0.348 (MB)
	Size of irrep 5 of <ia|bc> integrals:      0.117 (MW) /      0.935 (MB)
	Size of irrep 6 of <ia|bc> integrals:      0.117 (MW) /      0.935 (MB)
	Size of irrep 7 of <ia|bc> integrals:      0.117 (MW) /      0.935 (MB)
	Total:                                     0.831 (MW) /      6.648 (MB)

	Size of irrep 0 of <Ia|Bc> integrals:      0.305 (MW) /      2.441 (MB)
	Size of irrep 1 of <Ia|Bc> integrals:      0.131 (MW) /      1.050 (MB)
	Size of irrep 2 of <Ia|Bc> integrals:      0.194 (MW) /      1.552 (MB)
	Size of irrep 3 of <Ia|Bc> integrals:      0.194 (MW) /      1.552 (MB)
	Size of irrep 4 of <Ia|Bc> integrals:      0.122 (MW) /      0.976 (MB)
	Size of irrep 5 of <Ia|Bc> integrals:      0.285 (MW) /      2.282 (MB)
	Size of irrep 6 of <Ia|Bc> integrals:      0.206 (MW) /      1.647 (MB)
	Size of irrep 7 of <Ia|Bc> integrals:      0.206 (MW) /      1.647 (MB)
	Total:                                     1.643 (MW) /     13.148 (MB)

	Size of irrep 0 of <iA|bC> integrals:      0.181 (MW) /      1.449 (MB)
	Size of irrep 1 of <iA|bC> integrals:      0.085 (MW) /      0.677 (MB)
	Size of irrep 2 of <iA|bC> integrals:      0.084 (MW) /      0.675 (MB)
	Size of irrep 3 of <iA|bC> integrals:      0.084 (MW) /      0.675 (MB)
	Size of irrep 4 of <iA|bC> integrals:      0.043 (MW) /      0.346 (MB)
	Size of irrep 5 of <iA|bC> integrals:      0.111 (MW) /      0.892 (MB)
	Size of irrep 6 of <iA|bC> integrals:      0.116 (MW) /      0.931 (MB)
	Size of irrep 7 of <iA|bC> integrals:      0.116 (MW) /      0.931 (MB)
	Total:                                     0.822 (MW) /      6.576 (MB)

	Size of irrep 0 of tIjAb amplitudes:       0.005 (MW) /      0.038 (MB)
	Size of irrep 1 of tIjAb amplitudes:       0.000 (MW) /      0.000 (MB)
	Size of irrep 2 of tIjAb amplitudes:       0.000 (MW) /      0.000 (MB)
	Size of irrep 3 of tIjAb amplitudes:       0.000 (MW) /      0.000 (MB)
	Size of irrep 4 of tIjAb amplitudes:       0.000 (MW) /      0.000 (MB)
	Size of irrep 5 of tIjAb amplitudes:       0.004 (MW) /      0.036 (MB)
	Size of irrep 6 of tIjAb amplitudes:       0.000 (MW) /      0.000 (MB)
	Size of irrep 7 of tIjAb amplitudes:       0.000 (MW) /      0.000 (MB)
	Total:                                     0.009 (MW) /      0.074 (MB)

	Nuclear Rep. energy          =      0.00000000000000
	SCF energy                   =    -37.29683389181049
	One-electron energy          =     -6.64708521103476
	Two-electron (AA) energy     =      0.48737653344298
	Two-electron (BB) energy     =      0.00000000000000
	Two-electron (AB) energy     =      1.22329385025195
	Two-electron energy          =      1.71067038369492
	Reference energy             =    -37.29683389181057

*** tstop() called on n412-071.vsc4.prov at Mon Nov  2 10:40:29 2020
Module time:
	user time   =      15.49 seconds =       0.26 minutes
	system time =      12.38 seconds =       0.21 minutes
	total time  =         62 seconds =       1.03 minutes
Total time:
	user time   =     263.51 seconds =       4.39 minutes
	system time =      18.47 seconds =       0.31 minutes
	total time  =        137 seconds =       2.28 minutes

*** tstart() called on n412-071.vsc4.prov
*** at Mon Nov  2 10:40:29 2020

            **************************
            *                        *
            *        CCENERGY        *
            *                        *
            **************************

    Nuclear Rep. energy (wfn)     =    0.000000000000000
    SCF energy          (wfn)     =  -37.296833891810493
    Reference energy    (file100) =  -37.296833891810572

      * MP2 total energy                      =  -37.353601428195361
      * CCSD total energy                     =  -37.375139882985565
*** Psi4 exiting successfully. Buy a developer a beer!
