                               Psi4 1.2a1.dev939

  ==> Input File <==

--------------------------------------------------------------------------
# Any line starting with the # character is a comment line

memory 32000 mb

molecule molecule {
0 1
O          1.1623998207       -0.0095206174        0.0000000000
C         -0.0103871987       -0.0419819387        0.0000000000
N         -1.2231559955        0.0984473505        0.0000000000
H         -1.8749565266       -0.6671278944        0.0000000000
}

set {
  reference rhf
  basis aug-cc-pv(T+d)z
  scf_type OUT_OF_CORE
  freeze_core true
}

energy('ccsd')
--------------------------------------------------------------------------

    Molecular point group: cs

    Geometry (in Angstrom), charge = 0, multiplicity = 1:

       Center              X                  Y                   Z               Mass
    ------------   -----------------  -----------------  -----------------  -----------------
           O          1.175182570233    -0.010686799643     0.000000000000    15.994914619560
           C          0.002395550833    -0.043148120943     0.000000000000    12.000000000000
           N         -1.210373245967     0.097281168257     0.000000000000    14.003074004780
           H         -1.862173777067    -0.668294076643     0.000000000000     1.007825032070

  Charge       = 0
  Multiplicity = 1
  Basis Set: AUG-CC-PV(T+D)Z
    Blend: AUG-CC-PV(T+D)Z

    Orbital Energies (a.u.)
    -----------------------

    Doubly Occupied:

       1Ap   -20.627791     2Ap   -15.597834     3Ap   -11.420170
       4Ap    -1.474510     5Ap    -1.263473     6Ap    -0.815215
       7Ap    -0.732482     1App   -0.656699     8Ap    -0.645753
       9Ap    -0.489471     2App   -0.454824

  @RHF Final Energy:  -167.83021052942172

   => Energetics <=

    Nuclear Repulsion Energy =             58.9249023011259041
    One-Electron Energy =                -345.1537855766381426
    Two-Electron Energy =                 118.3986727460905257
    Total Energy =                       -167.8302105294217199
      * MP2 total energy                      = -168.420274553200613
      * CCSD total energy                     = -168.415473076697651
*** Psi4 exiting successfully. Buy a developer a beer!
