                               Psi4 1.2a1.dev939

  ==> Input File <==

--------------------------------------------------------------------------
# Any line starting with the # character is a comment line

memory 450000 mb

molecule molecule {
0 1
O          1.1623998207       -0.0095206174        0.0000000000
C         -0.0103871987       -0.0419819387        0.0000000000
N         -1.2231559955        0.0984473505        0.0000000000
H         -1.8749565266       -0.6671278944        0.0000000000
}

set {
  reference rhf

  basis aug-cc-pv(6+d)z
  scf_type OUT_OF_CORE
  freeze_core true
}

energy('ccsd')
--------------------------------------------------------------------------

    Molecular point group: cs

    Geometry (in Angstrom), charge = 0, multiplicity = 1:

       Center              X                  Y                   Z               Mass
    ------------   -----------------  -----------------  -----------------  -----------------
           O          1.175182570233    -0.010686799643     0.000000000000    15.994914619560
           C          0.002395550833    -0.043148120943     0.000000000000    12.000000000000
           N         -1.210373245967     0.097281168257     0.000000000000    14.003074004780
           H         -1.862173777067    -0.668294076643     0.000000000000     1.007825032070

  Charge       = 0
  Multiplicity = 1
  Basis Set: AUG-CC-PV(6+D)Z
    Blend: AUG-CC-PV(6+D)Z

    Orbital Energies (a.u.)
    -----------------------

    Doubly Occupied:

       1Ap   -20.624299     2Ap   -15.595497     3Ap   -11.418480
       4Ap    -1.473305     5Ap    -1.262738     6Ap    -0.815054
       7Ap    -0.732403     1App   -0.656762     8Ap    -0.645767
       9Ap    -0.489600     2App   -0.454982

  @RHF Final Energy:  -167.84351828080122

   => Energetics <=

    Nuclear Repulsion Energy =             58.9249023011259041
    One-Electron Energy =                -345.1990678930787908
    Two-Electron Energy =                 118.4306473111516880
    Total Energy =                       -167.8435182808012200
      * MP2 total energy                      = -168.490469094870065
      * CCSD total energy                     = -168.473670828304819
*** Psi4 exiting successfully. Buy a developer a beer!
