                               Psi4 1.4a3.dev88

  ==> Input File <==

--------------------------------------------------------------------------
# Any line starting with the # character is a comment line
memory 250000 mb
molecule molecule{
0 1
C          0.0000000000        0.0000000000       -0.0000000000
H          0.8868624468        0.0000000000        0.6271064501
H         -0.8868624468        0.0000000000        0.6271064501
H          0.0000000000       -0.8868624468       -0.6271064501
H          0.0000000000        0.8868624468       -0.6271064501
}

set {
  reference rhf
  basis aug-cc-pV(d+d)Z
  scf_type OUT_OF_CORE
  freeze_core true
}

energy('ccsd(t)')
--------------------------------------------------------------------------

    Molecular point group: c2v

    Geometry (in Angstrom), charge = 0, multiplicity = 1:

       Center              X                  Y                   Z               Mass
    ------------   -----------------  -----------------  -----------------  -----------------
         C           -0.000000000000    -0.000000000000     0.000000000000    12.000000000000
         H            0.886862446800     0.000000000000     0.627106450100     1.007825032230
         H           -0.886862446800    -0.000000000000     0.627106450100     1.007825032230
         H            0.000000000000    -0.886862446800    -0.627106450100     1.007825032230
         H           -0.000000000000     0.886862446800    -0.627106450100     1.007825032230

  Charge       = 0
  Multiplicity = 1
  Basis Set: AUG-CC-PV(D+D)Z
    Blend: AUG-CC-PV(D+D)Z

    Orbital Energies [Eh]
    ---------------------

    Doubly Occupied:

       1A1   -11.214021     2A1    -0.944919     1B1    -0.544660
       1B2    -0.544660     3A1    -0.544660

  @RHF Final Energy:   -40.19960509423944

   => Energetics <=

    Nuclear Repulsion Energy =             13.4826374399285562
    One-Electron Energy =                 -79.7786441681168412
    Two-Electron Energy =                  26.0964016339488474
    Total Energy =                        -40.1996050942394447

  Dipole Moment: [D]
     X:     0.0000      Y:     0.0000      Z:     0.0000     Total:     0.0000

      * MP2 total energy                      =  -40.367350941194374
      * CCSD total energy                     =  -40.390656217432344
      * CCSD(T) total energy                  =  -40.395126737516598
*** Psi4 exiting successfully. Buy a developer a beer!
