                               Psi4 1.4a3.dev88

  ==> Input File <==

--------------------------------------------------------------------------
# Any line starting with the # character is a comment line
memory 250000 mb
molecule molecule{
0 1
C          0.0000000000        0.0000000000        0.0000000000
O          0.0000000000        0.0000000000        1.1702257798
O          0.0000000000        0.0000000000       -1.1702257798
}

set {
  reference rhf
  basis aug-cc-pv(q+d)z
  scf_type OUT_OF_CORE
  freeze_core true
}

energy('ccsd(t)')
--------------------------------------------------------------------------

    Molecular point group: d2h

    Geometry (in Angstrom), charge = 0, multiplicity = 1:

       Center              X                  Y                   Z               Mass
    ------------   -----------------  -----------------  -----------------  -----------------
         C            0.000000000000     0.000000000000     0.000000000000    12.000000000000
         O            0.000000000000     0.000000000000     1.170225779800    15.994914619570
         O            0.000000000000     0.000000000000    -1.170225779800    15.994914619570

  Charge       = 0
  Multiplicity = 1
  Basis Set: AUG-CC-PV(Q+D)Z
    Blend: AUG-CC-PV(Q+D)Z

    Orbital Energies [Eh]
    ---------------------

    Doubly Occupied:

       1B1u  -20.652805     1Ag   -20.652761     2Ag   -11.465136
       3Ag    -1.525689     2B1u   -1.472604     4Ag    -0.802071
       3B1u   -0.742016     1B2u   -0.711751     1B3u   -0.711751
       1B3g   -0.544436     1B2g   -0.544436

  @RHF Final Energy:  -187.71944190268528

   => Energetics <=

    Nuclear Repulsion Energy =             57.8817217454706565
    One-Electron Energy =                -371.5514154324205265
    Two-Electron Energy =                 125.9502517842645943
    Total Energy =                       -187.7194419026852756

  Dipole Moment: [D]
     X:     0.0000      Y:     0.0000      Z:     0.0000     Total:     0.0000

      * MP2 total energy                      = -188.373788672555293
      * CCSD total energy                     = -188.357090989750333
      * CCSD(T) total energy                  = -188.389399146485573
*** Psi4 exiting successfully. Buy a developer a beer!
