                               Psi4 1.4a3.dev88

  ==> Input File <==

--------------------------------------------------------------------------
# Any line starting with the # character is a comment line
memory 250000 mb
molecule molecule{
0 1
C          0.0000000000        0.0000000000        0.0000000000
O          0.0000000000        0.0000000000        1.1702257798
O          0.0000000000        0.0000000000       -1.1702257798
}

set {
  reference rhf
  basis aug-cc-pV(t+d)Z
  scf_type OUT_OF_CORE
  freeze_core true
}

energy('ccsd(t)')
--------------------------------------------------------------------------

    Molecular point group: d2h

    Geometry (in Angstrom), charge = 0, multiplicity = 1:

       Center              X                  Y                   Z               Mass
    ------------   -----------------  -----------------  -----------------  -----------------
         C            0.000000000000     0.000000000000     0.000000000000    12.000000000000
         O            0.000000000000     0.000000000000     1.170225779800    15.994914619570
         O            0.000000000000     0.000000000000    -1.170225779800    15.994914619570

  Charge       = 0
  Multiplicity = 1
  Basis Set: AUG-CC-PV(T+D)Z
    Blend: AUG-CC-PV(T+D)Z

    Orbital Energies [Eh]
    ---------------------

    Doubly Occupied:

       1B1u  -20.655560     1Ag   -20.655515     2Ag   -11.466769
       3Ag    -1.526676     2B1u   -1.473722     4Ag    -0.802273
       3B1u   -0.742139     1B2u   -0.711784     1B3u   -0.711784
       1B3g   -0.544393     1B2g   -0.544393

  @RHF Final Energy:  -187.70687465431945

   => Energetics <=

    Nuclear Repulsion Energy =             57.8817217454706565
    One-Electron Energy =                -371.5071758201250987
    Two-Electron Energy =                 125.9185794203349928
    Total Energy =                       -187.7068746543194493

  Dipole Moment: [D]
     X:     0.0000      Y:     0.0000      Z:     0.0000     Total:     0.0000

      * MP2 total energy                      = -188.321640733095563
      * CCSD total energy                     = -188.310244731358665
      * CCSD(T) total energy                  = -188.340554278257969
*** Psi4 exiting successfully. Buy a developer a beer!
