                               Psi4 1.2a1.dev938

  ==> Input File <==

--------------------------------------------------------------------------
# Any line starting with the # character is a comment line
memory 250000 mb
molecule molecule{
-1 3
Si         0.0000000000        0.0000000000        0.0535071526
H          0.0000000000        0.0000000000       -1.4909370929
}

set {
  reference uhf
  basis aug-cc-pv(t+d)z
  scf_type OUT_OF_CORE
  freeze_core true
}

energy('ccsd')
--------------------------------------------------------------------------

    Molecular point group: c2v

    Geometry (in Angstrom), charge = -1, multiplicity = 3:

       Center              X                  Y                   Z               Mass
    ------------   -----------------  -----------------  -----------------  -----------------
          SI          0.000000000000     0.000000000000     0.053701670266    27.976926532460
           H          0.000000000000     0.000000000000    -1.490742575234     1.007825032070

  Charge       = -1
  Multiplicity = 3
  Basis Set: AUG-CC-PV(T+D)Z
    Blend: AUG-CC-PV(T+D)Z

    Orbital Energies (a.u.)
    -----------------------

    Alpha Occupied:

       1A1   -68.549037     2A1    -5.894236     1B1    -4.002914
       1B2    -4.002914     3A1    -3.993466     4A1    -0.435319
       5A1    -0.162603     2B1    -0.056357     2B2    -0.056357

    Alpha Virtual:

       6A1     0.150228     7A1     0.183432     3B1     0.204745
       3B2     0.204745     8A1     0.269119     1A2     0.306194
       9A1     0.306194     4B2     0.306307     4B1     0.306307
      10A1     0.313304    11A1     0.411796    12A1     0.450386
       5B1     0.492385     5B2     0.492385     2A2     0.643601
      13A1     0.643601     6B1     0.651354     6B2     0.651354
       7B1     0.669617     7B2     0.669617    14A1     0.676654
       8B1     0.683929     8B2     0.683929     3A2     0.688070
      15A1     0.688070    16A1     0.742793    17A1     0.796390
       9B1     0.809267     9B2     0.809267    18A1     0.847894
      19A1     1.057356    20A1     1.215839     4A2     1.215839
      10B1     1.246605    10B2     1.246605    21A1     1.402777
      11B1     1.464360    11B2     1.464360     5A2     1.477121
      22A1     1.477121    23A1     1.533050    12B1     1.606737
      12B2     1.606737    13B1     1.664934    13B2     1.664934
       6A2     1.686082    24A1     1.686082    25A1     1.804487
      14B2     1.953780    14B1     1.953780    26A1     2.177472
      15B1     2.866858    15B2     2.866858    27A1     3.039284
      28A1     3.255873    29A1     3.895957    30A1     4.203460
       7A2     4.203460    16B2     4.305312    16B1     4.305312
      31A1     4.518622    17B2     4.593970    17B1     4.593970
       8A2     5.036316    32A1     5.036316    33A1     5.120308
      18B2     5.169308    18B1     5.169308    34A1     6.216020

    Beta Occupied:

       1A1   -68.542017     2A1    -5.885813     3A1    -3.990752
       1B2    -3.981962     1B1    -3.981962     4A1    -0.347390
       5A1    -0.123667

    Beta Virtual:

       6A1     0.153859     2B1     0.183650     2B2     0.183650
       7A1     0.186397     8A1     0.288031     3B2     0.309070
       3B1     0.309070     9A1     0.320433     4B1     0.322839
       4B2     0.322839     1A2     0.340356    10A1     0.340356
      11A1     0.430764    12A1     0.461895     5B1     0.505116
       5B2     0.505116    13A1     0.686528     6B2     0.701502
       6B1     0.701502     2A2     0.709064    14A1     0.709064
       7B2     0.715916     7B1     0.715916     8B1     0.716409
       8B2     0.716409     3A2     0.728568    15A1     0.728568
      16A1     0.761997    17A1     0.815185     9B2     0.827667
       9B1     0.827667    18A1     0.859626    19A1     1.070475
      20A1     1.226161     4A2     1.226161    10B2     1.251578
      10B1     1.251578    21A1     1.408372    11B2     1.481491
      11B1     1.481491     5A2     1.516895    22A1     1.516895
      23A1     1.541106    12B2     1.623420    12B1     1.623420
      13B1     1.714550    13B2     1.714550    24A1     1.717457
       6A2     1.717457    25A1     1.818653    14B2     1.970875
      14B1     1.970875    26A1     2.182095    15B2     2.896669
      15B1     2.896669    27A1     3.044713    28A1     3.258360
      29A1     3.904735    30A1     4.205051     7A2     4.205051
      16B2     4.306684    16B1     4.306684    31A1     4.517926
      17B2     4.593924    17B1     4.593924    32A1     5.045840
       8A2     5.045840    33A1     5.122147    18B2     5.175189
      18B1     5.175189    34A1     6.221256

    Final Occupation by Irrep:
             A1    A2    B1    B2
    DOCC [     5,    0,    1,    1 ]
    SOCC [     0,    0,    1,    1 ]

  Energy converged.

  @UHF Final Energy:  -289.46778851459277

   => Energetics <=

    Nuclear Repulsion Energy =              4.7968587677061612
    One-Electron Energy =                -414.5225299652134936
    Two-Electron Energy =                 120.2578826829145555
    PCM Polarization Energy =               0.0000000000000000
    Total Energy =                       -289.4677885145927689

    Alert: EFP and PCM quantities not currently incorporated into SCF psivars.
  UHF NO Occupations:
  HONO-2 :    5 A1 1.9817739
  HONO-1 :    2 B1 1.0000000
  HONO-0 :    2 B2 1.0000000
  LUNO+0 :    6 A1 0.0182261
  LUNO+1 :    7 A1 0.0005832
  LUNO+2 :    3 B1 0.0000025
  LUNO+3 :    3 B2 0.0000025

Properties will be evaluated at   0.000000,   0.000000,   0.000000 Bohr

Properties computed using the SCF density matrix

  Nuclear Dipole Moment: (a.u.)
     X:     0.0000      Y:     0.0000      Z:    -1.3964

  Electronic Dipole Moment: (a.u.)
     X:     0.0000      Y:     0.0000      Z:     1.3344

  Dipole Moment: (a.u.)
     X:     0.0000      Y:     0.0000      Z:    -0.0619     Total:     0.0619

  Dipole Moment: (Debye)
     X:     0.0000      Y:     0.0000      Z:    -0.1574     Total:     0.1574

*** tstop() called on cqc05 at Thu Aug 20 20:06:41 2020
Module time:
	user time   =       1.70 seconds =       0.03 minutes
	system time =       0.08 seconds =       0.00 minutes
	total time  =          1 seconds =       0.02 minutes
Total time:
	user time   =       1.70 seconds =       0.03 minutes
	system time =       0.08 seconds =       0.00 minutes
	total time  =          1 seconds =       0.02 minutes

*** tstart() called on cqc05
*** at Thu Aug 20 20:06:41 2020

	Wfn Parameters:
	--------------------
	Wavefunction         = CCSD
	Number of irreps     = 4
	Number of MOs        = 78
	Number of active MOs = 73
	AO-Basis             = NONE
	Semicanonical        = false
	Reference            = UHF
	Print Level          = 1

	IRREP	# MOs	# FZDC	# DOCC	# SOCC	# VIRT	# FZVR
	-----	-----	------	------	------	------	------
	 A1	   34	    3	    2	    0	    29	    0
	 A2	   8	    0	    0	    0	    8	    0
	 B1	   18	    1	    0	    1	    16	    0
	 B2	   18	    1	    0	    1	    16	    0
	Transforming integrals...
	IWL integrals will be deleted.
	(OO|OO)...
	Presorting SO-basis two-electron integrals.
	Sorting File: SO Ints (nn|nn) nbuckets = 1
	Transforming the one-electron integrals and constructing Fock matrices
	Starting AA/AB first half-transformation.
	Sorting AA/AB half-transformed integrals.
	Starting BB first half-transformation.
	Sorting BB half-transformed integrals.
	First half integral transformation complete.
	Starting AA second half-transformation.
	Starting AB second half-transformation.
	Starting BB second half-transformation.
	Two-electron integral transformation complete.
	(OO|OV)...
	Starting AA second half-transformation.
	Starting AB second half-transformation.
	Starting BB second half-transformation.
	Two-electron integral transformation complete.
	(OO|VV)...
	Starting AA second half-transformation.
	Starting AB second half-transformation.
	Starting BB second half-transformation.
	Two-electron integral transformation complete.
	(OV|OO)...
	Starting AA/AB first half-transformation.
	Sorting AA/AB half-transformed integrals.
	Starting BB first half-transformation.
	Sorting BB half-transformed integrals.
	First half integral transformation complete.
	Starting AA second half-transformation.
	Starting AB second half-transformation.
	Starting BB second half-transformation.
	Two-electron integral transformation complete.
	(OV|OV)...
	Starting AA second half-transformation.
	Starting AB second half-transformation.
	Starting BB second half-transformation.
	Two-electron integral transformation complete.
	(OV|VV)...
	Starting AA second half-transformation.
	Starting AB second half-transformation.
	Starting BB second half-transformation.
	Two-electron integral transformation complete.
	(VV|OO)...
	Starting AA/AB first half-transformation.
	Sorting AA/AB half-transformed integrals.
	Starting BB first half-transformation.
	Sorting BB half-transformed integrals.
	First half integral transformation complete.
	Starting AA second half-transformation.
	Starting AB second half-transformation.
	Starting BB second half-transformation.
	Two-electron integral transformation complete.
	(VV|OV)...
	Starting AA second half-transformation.
	Starting AB second half-transformation.
	Starting BB second half-transformation.
	Two-electron integral transformation complete.
	(VV|VV)...
	Starting AA second half-transformation.
	Starting AB second half-transformation.
	Starting BB second half-transformation.
	Two-electron integral transformation complete.
	Frozen core energy     =   -288.60214699820705

	Size of irrep 0 of <AB|CD> integrals:      0.454 (MW) /      3.634 (MB)
	Size of irrep 1 of <AB|CD> integrals:      0.238 (MW) /      1.905 (MB)
	Size of irrep 2 of <AB|CD> integrals:      0.350 (MW) /      2.804 (MB)
	Size of irrep 3 of <AB|CD> integrals:      0.350 (MW) /      2.804 (MB)
	Total:                                     1.393 (MW) /     11.147 (MB)

	Size of irrep 0 of <ab|cd> integrals:      0.498 (MW) /      3.987 (MB)
	Size of irrep 1 of <ab|cd> integrals:      0.271 (MW) /      2.172 (MB)
	Size of irrep 2 of <ab|cd> integrals:      0.396 (MW) /      3.165 (MB)
	Size of irrep 3 of <ab|cd> integrals:      0.396 (MW) /      3.165 (MB)
	Total:                                     1.561 (MW) /     12.489 (MB)

	Size of irrep 0 of <Ab|Cd> integrals:      2.100 (MW) /     16.797 (MB)
	Size of irrep 1 of <Ab|Cd> integrals:      1.016 (MW) /      8.129 (MB)
	Size of irrep 2 of <Ab|Cd> integrals:      1.491 (MW) /     11.927 (MB)
	Size of irrep 3 of <Ab|Cd> integrals:      1.491 (MW) /     11.927 (MB)
	Total:                                     6.097 (MW) /     48.779 (MB)

	Size of irrep 0 of <IA|BC> integrals:      0.128 (MW) /      1.020 (MB)
	Size of irrep 1 of <IA|BC> integrals:      0.047 (MW) /      0.375 (MB)
	Size of irrep 2 of <IA|BC> integrals:      0.082 (MW) /      0.654 (MB)
	Size of irrep 3 of <IA|BC> integrals:      0.082 (MW) /      0.654 (MB)
	Total:                                     0.338 (MW) /      2.702 (MB)

	Size of irrep 0 of <ia|bc> integrals:      0.086 (MW) /      0.688 (MB)
	Size of irrep 1 of <ia|bc> integrals:      0.017 (MW) /      0.133 (MB)
	Size of irrep 2 of <ia|bc> integrals:      0.043 (MW) /      0.342 (MB)
	Size of irrep 3 of <ia|bc> integrals:      0.043 (MW) /      0.342 (MB)
	Total:                                     0.188 (MW) /      1.506 (MB)

	Size of irrep 0 of <Ia|Bc> integrals:      0.133 (MW) /      1.066 (MB)
	Size of irrep 1 of <Ia|Bc> integrals:      0.050 (MW) /      0.403 (MB)
	Size of irrep 2 of <Ia|Bc> integrals:      0.087 (MW) /      0.694 (MB)
	Size of irrep 3 of <Ia|Bc> integrals:      0.087 (MW) /      0.694 (MB)
	Total:                                     0.357 (MW) /      2.857 (MB)

	Size of irrep 0 of <iA|bC> integrals:      0.084 (MW) /      0.672 (MB)
	Size of irrep 1 of <iA|bC> integrals:      0.016 (MW) /      0.129 (MB)
	Size of irrep 2 of <iA|bC> integrals:      0.039 (MW) /      0.313 (MB)
	Size of irrep 3 of <iA|bC> integrals:      0.039 (MW) /      0.313 (MB)
	Total:                                     0.178 (MW) /      1.427 (MB)

	Size of irrep 0 of tIjAb amplitudes:       0.006 (MW) /      0.046 (MB)
	Size of irrep 1 of tIjAb amplitudes:       0.000 (MW) /      0.000 (MB)
	Size of irrep 2 of tIjAb amplitudes:       0.002 (MW) /      0.020 (MB)
	Size of irrep 3 of tIjAb amplitudes:       0.002 (MW) /      0.020 (MB)
	Total:                                     0.011 (MW) /      0.085 (MB)

	Nuclear Rep. energy          =      4.79685876770616
	SCF energy                   =   -289.46778851459277
	One-electron energy          =    -10.14330812912952
	Two-electron (AA) energy     =      1.55373912451889
	Two-electron (BB) energy     =      0.25201671841162
	Two-electron (AB) energy     =      2.67505200210752
	Two-electron energy          =      4.48080784503803
	Reference energy             =   -289.46778851459237

*** tstop() called on cqc05 at Thu Aug 20 20:06:42 2020
Module time:
	user time   =       0.66 seconds =       0.01 minutes
	system time =       0.32 seconds =       0.01 minutes
	total time  =          1 seconds =       0.02 minutes
Total time:
	user time   =       2.36 seconds =       0.04 minutes
	system time =       0.40 seconds =       0.01 minutes
	total time  =          2 seconds =       0.03 minutes

*** tstart() called on cqc05
*** at Thu Aug 20 20:06:42 2020

            **************************
            *                        *
            *        CCENERGY        *
            *                        *
            **************************

    Nuclear Rep. energy (wfn)     =    4.796858767706161
    SCF energy          (wfn)     = -289.467788514592769
    Reference energy    (file100) = -289.467788514592371

    Input parameters:
    -----------------
    Wave function   =     CCSD
    Reference wfn   =     UHF
    Brueckner       =     No
    Memory (Mbytes) =     250000.0
    Maxiter         =     50
    R_Convergence   =     1.0e-07
    E_Convergence   =     1.0e-06
    Restart         =     Yes
    DIIS            =     Yes
    AO Basis        =     NONE
    ABCD            =     NEW
    Cache Level     =     2
    Cache Type      =     LRU
    Print Level     =     1
    Num. of threads =     4
    # Amps to Print =     10
    Print MP2 Amps? =     No
    Analyze T2 Amps =     No
    Print Pair Ener =     No
    Local CC        =     No
    SCS-MP2         =     False
    SCSN-MP2        =     False
    SCS-CCSD        =     False

MP2 correlation energy -0.0987450873372059
                Solving CC Amplitude Equations
                ------------------------------
  Iter             Energy              RMS        T1Diag      D1Diag    New D1Diag    D2Diag
  ----     ---------------------    ---------   ----------  ----------  ----------   --------
     0        -0.098745087337207    0.000e+00    0.000000    0.000000    0.000000    0.000000
     1        -0.114159125266122    6.175e-02    0.014051    0.000000    0.000000    0.000000
     2        -0.120525968918169    2.631e-02    0.024872    0.000000    0.000000    0.000000
     3        -0.121120826364129    9.293e-03    0.030325    0.000000    0.000000    0.000000
     4        -0.121145716568018    3.326e-03    0.032005    0.000000    0.000000    0.000000
     5        -0.121133897132483    1.417e-03    0.032625    0.000000    0.000000    0.000000
     6        -0.121136393425680    5.413e-04    0.032744    0.000000    0.000000    0.000000
     7        -0.121141576808748    2.114e-04    0.032765    0.000000    0.000000    0.000000
     8        -0.121143053880441    7.408e-05    0.032775    0.000000    0.000000    0.000000
     9        -0.121142562437016    2.778e-05    0.032775    0.000000    0.000000    0.000000
    10        -0.121142478199193    1.122e-05    0.032774    0.000000    0.000000    0.000000
    11        -0.121142480823681    4.559e-06    0.032774    0.000000    0.000000    0.000000
    12        -0.121142584798886    1.827e-06    0.032774    0.000000    0.000000    0.000000
    13        -0.121142622696205    7.319e-07    0.032774    0.000000    0.000000    0.000000
    14        -0.121142630228966    3.156e-07    0.032774    0.000000    0.000000    0.000000
    15        -0.121142628089995    1.473e-07    0.032774    0.000000    0.000000    0.000000
    16        -0.121142627268005    5.813e-08    0.032774    0.000000    0.000000    0.000000
    16        -0.121142627268005    5.813e-08    0.032774    0.000000    0.000000    0.000000

    Iterations converged.

    CCSD corr. energy   =   -0.121142627268005
    PPL corr. energy    =    0.039244946283107
    OS PPL corr. energy =    0.033544779683168
    SS PPL corr. energy =    0.005700166599938
    Largest TIA Amplitudes:
              1   2        -0.0250851954
              1   4         0.0216625592
              1   8         0.0207982871
              1   5         0.0205078355
              0   2         0.0097145425
              1   6         0.0095188460
              3  54         0.0092306699
              2  38         0.0092306684
              3  55         0.0090518237
              2  39         0.0090518219

    Largest Tia Amplitudes:
              1   3         0.0253672979
              1   5        -0.0201353048
              0   6         0.0190597991
              0   5        -0.0187394424
              1   6         0.0186459545
              0   3         0.0175179227
              1   7         0.0156758642
              1   2        -0.0152713706
              0   7         0.0130151409
              0   2        -0.0089518931

    Largest TIJAB Amplitudes:
      3   2  29   3        -0.0429692789
      3   2  53  37        -0.0418557684
      3   2  30   7        -0.0375476401
      3   2  29   7        -0.0301971199
      3   2  30   3        -0.0301971199
      3   2  56  40        -0.0270388410
      3   2  53  40         0.0266388125
      3   2  56  37         0.0266388087
      3   2  54  38        -0.0204818644
      3   1  54   5         0.0193884701

    Largest Tijab Amplitudes:
      1   0  58  55         0.0091461104
      1   0  41  38         0.0091461104
      1   0   6   5        -0.0089009115
      1   0  57  55         0.0088360757
      1   0  40  38         0.0088360756
      1   0  56  55         0.0079263078
      1   0  39  38         0.0079263078
      1   0  11   5         0.0070002246
      1   0  12  11         0.0069935489
      1   0   5   3         0.0066921633

    Largest TIjAb Amplitudes:
      2   1  30  55         0.0423824415
      2   1   7  38         0.0423824408

      * MP2 total energy                      = -289.566533601929564
      * CCSD total energy                     = -289.588931141860371
*** Psi4 exiting successfully. Buy a developer a beer!
