                               Psi4 1.2a1.dev939

  ==> Input File <==

--------------------------------------------------------------------------
# Any line starting with the # character is a comment line
memory 250000 mb
molecule molecule{
-1 3
Si         0.0000000000        0.0000000000        0.0535071526
H          0.0000000000        0.0000000000       -1.4909370929
}

set {
  reference uhf
  basis aug-cc-pv(6+d)z
  scf_type OUT_OF_CORE
  freeze_core true
}

energy('ccsd')
--------------------------------------------------------------------------

    Molecular point group: c2v

    Geometry (in Angstrom), charge = -1, multiplicity = 3:

       Center              X                  Y                   Z               Mass
    ------------   -----------------  -----------------  -----------------  -----------------
          SI          0.000000000000     0.000000000000     0.053701670266    27.976926532460
           H          0.000000000000     0.000000000000    -1.490742575234     1.007825032070

  Charge       = -1
  Multiplicity = 3
  Basis Set: AUG-CC-PV(6+D)Z
    Blend: AUG-CC-PV(6+D)Z

    Orbital Energies (a.u.)
    -----------------------

    Alpha Occupied:

       1A1   -68.548809     2A1    -5.893475     1B1    -4.002565
       1B2    -4.002565     3A1    -3.992913     4A1    -0.435216
       5A1    -0.162795     2B1    -0.056527     2B2    -0.056527

    Alpha Virtual:

       6A1     0.121762     7A1     0.134020     3B1     0.145178
       3B2     0.145178     8A1     0.212945     4B2     0.223395
       4B1     0.223395     9A1     0.234743     1A2     0.239020
      10A1     0.239020    11A1     0.271849    12A1     0.317260
       5B1     0.330288     5B2     0.330288     6B1     0.349814
       6B2     0.349814    13A1     0.414641     2A2     0.415637
      14A1     0.415637     7B2     0.422651     7B1     0.422651
       8B1     0.436959     8B2     0.436959    15A1     0.442113
      16A1     0.463683    17A1     0.471107     3A2     0.471107
      18A1     0.508060     9B1     0.538308     9B2     0.538308
      19A1     0.608604    20A1     0.662700     4A2     0.662700
      10B1     0.663396    10B2     0.663396    11B2     0.737730
      11B1     0.737730    21A1     0.738449     5A2     0.738449
      22A1     0.745929    12B1     0.767649    12B2     0.767649
      23A1     0.803043     6A2     0.803043    13B1     0.821214
      13B2     0.821214    24A1     0.829088    25A1     0.871495
      14B1     0.885678    14B2     0.885678    26A1     0.902436
      27A1     0.914007     7A2     0.914007    15B1     0.914333
      15B2     0.914333    28A1     0.953217     8A2     0.953217
      16B1     0.976658    16B2     0.976658    29A1     0.981740
      30A1     1.100105    17B1     1.227371    17B2     1.227371
      31A1     1.344247     9A2     1.344247    32A1     1.354131
      18B2     1.388976    18B1     1.388976    33A1     1.416302
      19B1     1.433786    19B2     1.433786    20B1     1.530242
      20B2     1.530242    10A2     1.531950    34A1     1.531950
      35A1     1.569701    21B2     1.605474    21B1     1.605474
      11A2     1.613011    36A1     1.613011    22B2     1.630127
      22B1     1.630127    12A2     1.676582    37A1     1.676582
      38A1     1.688984    39A1     1.692969    13A2     1.692969
      23B2     1.695814    23B1     1.695814    40A1     1.707544
      24B2     1.732381    24B1     1.732381    41A1     1.777106
      14A2     1.777106    25B1     1.798865    25B2     1.798865
      26B2     1.810428    26B1     1.810428    42A1     1.827636
      15A2     1.827636    27B1     1.880557    27B2     1.880557
      43A1     1.891382    44A1     2.015811    28B2     2.162357
      28B1     2.162357    45A1     2.234029    29B2     2.418612
      29B1     2.418612    46A1     2.446218    16A2     2.446218
      47A1     2.477254    48A1     2.555638    17A2     2.555638
      49A1     2.659100    18A2     2.781007    50A1     2.781007
      30B2     2.827570    30B1     2.827570    51A1     2.866254
      31B2     2.936852    31B1     2.936852    32B2     2.983677
      32B1     2.983677    19A2     3.020864    52A1     3.020864
      33B1     3.021747    33B2     3.021747    53A1     3.097899
      34B2     3.107817    34B1     3.107817    20A2     3.137200
      54A1     3.137200    21A2     3.145680    55A1     3.145680
      35B2     3.176127    35B1     3.176127    22A2     3.240653
      56A1     3.240653    36B1     3.242193    36B2     3.242193
      23A2     3.261690    57A1     3.261690    37B2     3.281956
      37B1     3.281956    24A2     3.331217    58A1     3.331217
      38B2     3.360448    38B1     3.360448    59A1     3.369599
      25A2     3.414998    60A1     3.414998    39B2     3.455325
      39B1     3.455325    61A1     3.542213    40B1     3.559542
      40B2     3.559542    62A1     3.577442    41B2     3.603664
      41B1     3.603664    26A2     3.622916    63A1     3.622916
      64A1     3.759105    42B2     3.807710    42B1     3.807710
      27A2     3.908087    65A1     3.908087    66A1     4.033423
      43B2     4.161345    43B1     4.161345    44B2     4.418189
      44B1     4.418189    67A1     4.486056    68A1     4.665639
      28A2     4.665639    45B1     4.702811    45B2     4.702811
      46B2     4.742721    46B1     4.742721    69A1     4.781145
      70A1     5.160715    47B2     5.191844    47B1     5.191844
      71A1     5.213437    29A2     5.213437    72A1     5.344441
      30A2     5.344441    73A1     5.475784    31A2     5.499082
      74A1     5.499082    48B2     5.526720    48B1     5.526720
      49B2     5.648601    49B1     5.648601    50B2     5.846107
      50B1     5.846107    32A2     6.020874    75A1     6.020874
      51B2     6.041646    51B1     6.041646    76A1     6.103102
      52B2     6.253255    52B1     6.253255    33A2     6.276858
      77A1     6.276858    53B1     6.284232    53B2     6.284232
      78A1     6.296869    34A2     6.297539    79A1     6.297539
      35A2     6.342764    80A1     6.342764    54B2     6.457977
      54B1     6.457977    55B2     6.509028    55B1     6.509028
      81A1     6.560303    56B1     6.591775    56B2     6.591775
      36A2     6.597829    82A1     6.597829    37A2     6.685052
      83A1     6.685052    57B2     6.752952    57B1     6.752952
      58B2     6.756975    58B1     6.756975    84A1     6.845078
      38A2     6.849724    85A1     6.849724    59B2     6.979756
      59B1     6.979756    60B1     7.196829    60B2     7.196829
      86A1     7.261519    39A2     7.271917    87A1     7.271917
      40A2     7.397090    88A1     7.397090    89A1     7.398886
      61B2     7.458714    61B1     7.458714    41A2     7.752957
      90A1     7.752957    91A1     8.185835    62B2     8.301377
      62B1     8.301377    63B2     8.414413    63B1     8.414413
      92A1     8.539756    42A2     9.137625    93A1     9.137625
      94A1     9.464028    64B2     9.563512    64B1     9.563512
      65B2    10.056873    65B1    10.056873    95A1    10.111580
      43A2    10.111580    96A1    10.207105    44A2    10.981607
      97A1    10.981607    66B2    10.998135    66B1    10.998135
      98A1    11.355172    67B2    11.417669    67B1    11.417669
      99A1    12.125006    68B2    14.036742    68B1    14.036742
     100A1    14.988495    69B1    17.792198    69B2    17.792198
     101A1    17.890011    45A2    17.890011    70B2    18.004759
      70B1    18.004759   102A1    18.031132    46A2    18.031132
     103A1    18.140708    71B2    18.271713    71B1    18.271713
     104A1    19.172440    47A2    19.172440    72B2    19.514896
      72B1    19.514896   105A1    19.864677    73B1    20.489789
      73B2    20.489789   106A1    20.596511    48A2    20.596511
      74B2    20.803825    74B1    20.803825   107A1    21.156079
      49A2    21.156079   108A1    21.529521    75B2    21.727450
      75B1    21.727450   109A1    21.832381   110A1    23.255361
      50A2    23.255361   111A1    23.682981    76B2    24.133920
      76B1    24.133920    77B1    24.190062    77B2    24.190062
     112A1    24.740149   113A1    24.843719    51A2    24.843719
      78B2    24.904481    78B1    24.904481   114A1    26.009509
      79B2    35.296522    79B1    35.296522   115A1    36.108624
     116A1   182.752252

    Beta Occupied:

       1A1   -68.541320     2A1    -5.885035     3A1    -3.990153
       1B2    -3.981176     1B1    -3.981176     4A1    -0.347355
       5A1    -0.123815

    Beta Virtual:

       6A1     0.123533     7A1     0.134717     2B1     0.140722
       2B2     0.140722     8A1     0.223897     3B1     0.227471
       3B2     0.227471     9A1     0.237078    10A1     0.252654
       1A2     0.252654     4B2     0.252980     4B1     0.252980
      11A1     0.278429    12A1     0.322654     5B1     0.345625
       5B2     0.345625     6B2     0.399803     6B1     0.399803
      13A1     0.422692     2A2     0.422692    14A1     0.423904
       7B1     0.433844     7B2     0.433844     8B2     0.451326
       8B1     0.451326    15A1     0.454386    16A1     0.483414
      17A1     0.514247    18A1     0.536231     3A2     0.536231
       9B2     0.562896     9B1     0.562896    19A1     0.617762
      20A1     0.667349     4A2     0.667349    10B1     0.669030
      10B2     0.669030    11B1     0.746112    11B2     0.746112
       5A2     0.749893    21A1     0.749893    22A1     0.757296
      12B2     0.794045    12B1     0.794045     6A2     0.809265
      23A1     0.809265    24A1     0.833582    13B2     0.839047
      13B1     0.839047    25A1     0.875578    14B2     0.909181
      14B1     0.909181    26A1     0.913081    15B1     0.948473
      15B2     0.948473     7A2     0.973605    27A1     0.973605
       8A2     0.974339    28A1     0.974339    29A1     0.993441
      16B2     0.993765    16B1     0.993765    30A1     1.109619
      17B2     1.235754    17B1     1.235754    31A1     1.348810
       9A2     1.348810    32A1     1.364945    18B2     1.395213
      18B1     1.395213    33A1     1.429087    19B2     1.443910
      19B1     1.443910    10A2     1.543872    34A1     1.543872
      20B1     1.545485    20B2     1.545485    35A1     1.574669
      21B2     1.620525    21B1     1.620525    11A2     1.638013
      36A1     1.638013    22B2     1.640314    22B1     1.640314
      12A2     1.683130    37A1     1.683130    38A1     1.692795
      23B2     1.703082    23B1     1.703082    13A2     1.705162
      39A1     1.705162    40A1     1.717655    24B2     1.743169
      24B1     1.743169    14A2     1.800056    41A1     1.800056
      25B2     1.825758    25B1     1.825758    26B1     1.837919
      26B2     1.837919    15A2     1.855166    42A1     1.855166
      43A1     1.901525    27B2     1.904948    27B1     1.904948
      44A1     2.016521    28B2     2.173009    28B1     2.173009
      45A1     2.239272    29B2     2.423996    29B1     2.423996
      46A1     2.453216    16A2     2.453216    47A1     2.483872
      17A2     2.561010    48A1     2.561010    49A1     2.668367
      18A2     2.784025    50A1     2.784025    30B2     2.831336
      30B1     2.831336    51A1     2.869877    31B2     2.947549
      31B1     2.947549    32B2     2.988554    32B1     2.988554
      33B1     3.035226    33B2     3.035226    19A2     3.037571
      52A1     3.037571    53A1     3.104729    34B2     3.118045
      34B1     3.118045    20A2     3.150820    54A1     3.150820
      21A2     3.172525    55A1     3.172525    35B2     3.194101
      35B1     3.194101    22A2     3.253148    56A1     3.253148
      36B1     3.263855    36B2     3.263855    23A2     3.275450
      57A1     3.275450    37B2     3.288252    37B1     3.288252
      24A2     3.337744    58A1     3.337744    38B2     3.369519
      38B1     3.369519    59A1     3.374083    25A2     3.427580
      60A1     3.427580    39B2     3.466206    39B1     3.466206
      61A1     3.550825    40B1     3.584072    40B2     3.584072
      62A1     3.584306    41B2     3.611683    41B1     3.611683
      26A2     3.638961    63A1     3.638961    64A1     3.767561
      42B2     3.813719    42B1     3.813719    27A2     3.918695
      65A1     3.918695    66A1     4.037194    43B2     4.166299
      43B1     4.166299    44B2     4.423333    44B1     4.423333
      67A1     4.488125    68A1     4.668298    28A2     4.668298
      45B1     4.705895    45B2     4.705895    46B2     4.750829
      46B1     4.750829    69A1     4.784127    70A1     5.164425
      47B2     5.195752    47B1     5.195752    71A1     5.217562
      29A2     5.217562    72A1     5.350010    30A2     5.350010
      73A1     5.477657    31A2     5.502653    74A1     5.502653
      48B2     5.537311    48B1     5.537311    49B2     5.652505
      49B1     5.652505    50B2     5.849946    50B1     5.849946
      32A2     6.037696    75A1     6.037696    51B2     6.053366
      51B1     6.053366    76A1     6.105859    52B2     6.255004
      52B1     6.255004    33A2     6.293737    77A1     6.293737
      53B1     6.297826    53B2     6.297826    78A1     6.300982
      34A2     6.302902    79A1     6.302902    35A2     6.353353
      80A1     6.353353    54B2     6.465130    54B1     6.465130
      55B2     6.515198    55B1     6.515198    81A1     6.563746
      56B1     6.609200    56B2     6.609200    36A2     6.611164
      82A1     6.611164    37A2     6.692262    83A1     6.692262
      57B2     6.758772    57B1     6.758772    58B2     6.766321
      58B1     6.766321    84A1     6.849958    38A2     6.857424
      85A1     6.857424    59B2     6.985416    59B1     6.985416
      60B1     7.205768    60B2     7.205768    86A1     7.264893
      39A2     7.280119    87A1     7.280119    88A1     7.401478
      40A2     7.403549    89A1     7.403549    61B2     7.461429
      61B1     7.461429    41A2     7.754364    90A1     7.754364
      91A1     8.188734    62B2     8.304090    62B1     8.304090
      63B2     8.417928    63B1     8.417928    92A1     8.542138
      42A2     9.140213    93A1     9.140213    94A1     9.465836
      64B2     9.564750    64B1     9.564750    65B2    10.057496
      65B1    10.057496    95A1    10.112143    43A2    10.112143
      96A1    10.209381    44A2    10.982155    97A1    10.982155
      66B2    10.998722    66B1    10.998722    98A1    11.355602
      67B2    11.418889    67B1    11.418889    99A1    12.127076
      68B2    14.036208    68B1    14.036208   100A1    14.988082
      69B1    17.792371    69B2    17.792371    45A2    17.890207
     101A1    17.890207    70B2    18.004883    70B1    18.004883
     102A1    18.031230    46A2    18.031230   103A1    18.141006
      71B2    18.271794    71B1    18.271794   104A1    19.183924
      47A2    19.183924    72B2    19.520983    72B1    19.520983
     105A1    19.868266    73B2    20.500449    73B1    20.500449
     106A1    20.596392    48A2    20.596392    74B2    20.803731
      74B1    20.803731   107A1    21.155965    49A2    21.155965
     108A1    21.529012    75B2    21.728260    75B1    21.728260
     109A1    21.832139   110A1    23.254807    50A2    23.254807
     111A1    23.683421    76B2    24.133624    76B1    24.133624
      77B1    24.189729    77B2    24.189729   112A1    24.739682
     113A1    24.843348    51A2    24.843348    78B2    24.904110
      78B1    24.904110   114A1    26.009821    79B2    35.295807
      79B1    35.295807   115A1    36.107908   116A1   182.755133

    Final Occupation by Irrep:
             A1    A2    B1    B2
    DOCC [     5,    0,    1,    1 ]
    SOCC [     0,    0,    1,    1 ]

  Energy converged.

  @UHF Final Energy:  -289.47045739904200

   => Energetics <=

    Nuclear Repulsion Energy =              4.7968587677061612
    One-Electron Energy =                -414.5332096215510091
    Two-Electron Energy =                 120.2658934548028355
    Total Energy =                       -289.4704573990420045

  UHF NO Occupations:
  HONO-2 :    5 A1 1.9815839
  HONO-1 :    2 B1 1.0000000
  HONO-0 :    2 B2 1.0000000
  LUNO+0 :    6 A1 0.0184161
  LUNO+1 :    7 A1 0.0005918
  LUNO+2 :    3 B1 0.0000027
  LUNO+3 :    3 B2 0.0000027

Properties will be evaluated at   0.000000,   0.000000,   0.000000 Bohr

Properties computed using the SCF density matrix

  Nuclear Dipole Moment: (a.u.)
     X:     0.0000      Y:     0.0000      Z:    -1.3964

  Electronic Dipole Moment: (a.u.)
     X:     0.0000      Y:     0.0000      Z:     1.3342

  Dipole Moment: (a.u.)
     X:     0.0000      Y:     0.0000      Z:    -0.0622     Total:     0.0622

  Dipole Moment: (Debye)
     X:     0.0000      Y:     0.0000      Z:    -0.1580     Total:     0.1580

*** tstop() called on n412-050.vsc4.prov at Sat Oct 31 17:30:19 2020
Module time:
	user time   =     726.24 seconds =      12.10 minutes
	system time =      45.13 seconds =       0.75 minutes
	total time  =        674 seconds =      11.23 minutes
Total time:
	user time   =     726.24 seconds =      12.10 minutes
	system time =      45.13 seconds =       0.75 minutes
	total time  =        674 seconds =      11.23 minutes

*** tstart() called on n412-050.vsc4.prov
*** at Sat Oct 31 17:30:19 2020

	Wfn Parameters:
	--------------------
	Wavefunction         = CCSD
	Number of irreps     = 4
	Number of MOs        = 325
	Number of active MOs = 320
	AO-Basis             = NONE
	Semicanonical        = false
	Reference            = UHF
	Print Level          = 1

	IRREP	# MOs	# FZDC	# DOCC	# SOCC	# VIRT	# FZVR
	-----	-----	------	------	------	------	------
	 A1	   116	    3	    2	    0	    111	    0
	 A2	   51	    0	    0	    0	    51	    0
	 B1	   79	    1	    0	    1	    77	    0
	 B2	   79	    1	    0	    1	    77	    0
	Transforming integrals...
	IWL integrals will be deleted.
	(OO|OO)...
	Presorting SO-basis two-electron integrals.
	Sorting File: SO Ints (nn|nn) nbuckets = 1
	Transforming the one-electron integrals and constructing Fock matrices
	Starting AA/AB first half-transformation.
	Sorting AA/AB half-transformed integrals.
	Starting BB first half-transformation.
	Sorting BB half-transformed integrals.
	First half integral transformation complete.
	Starting AA second half-transformation.
	Starting AB second half-transformation.
	Starting BB second half-transformation.
	Two-electron integral transformation complete.
	(OO|OV)...
	Starting AA second half-transformation.
	Starting AB second half-transformation.
	Starting BB second half-transformation.
	Two-electron integral transformation complete.
	(OO|VV)...
	Starting AA second half-transformation.
	Starting AB second half-transformation.
	Starting BB second half-transformation.
	Two-electron integral transformation complete.
	(OV|OO)...
	Starting AA/AB first half-transformation.
	Sorting AA/AB half-transformed integrals.
	Starting BB first half-transformation.
	Sorting BB half-transformed integrals.
	First half integral transformation complete.
	Starting AA second half-transformation.
	Starting AB second half-transformation.
	Starting BB second half-transformation.
	Two-electron integral transformation complete.
	(OV|OV)...
	Starting AA second half-transformation.
	Starting AB second half-transformation.
	Starting BB second half-transformation.
	Two-electron integral transformation complete.
	(OV|VV)...
	Starting AA second half-transformation.
	Starting AB second half-transformation.
	Starting BB second half-transformation.
	Two-electron integral transformation complete.
	(VV|OO)...
	Starting AA/AB first half-transformation.
	Sorting AA/AB half-transformed integrals.
	Starting BB first half-transformation.
	Sorting BB half-transformed integrals.
	First half integral transformation complete.
	Starting AA second half-transformation.
	Starting AB second half-transformation.
	Starting BB second half-transformation.
	Two-electron integral transformation complete.
	(VV|OV)...
	Starting AA second half-transformation.
	Starting AB second half-transformation.
	Starting BB second half-transformation.
	Two-electron integral transformation complete.
	(VV|VV)...
	Starting AA second half-transformation.
	Starting AB second half-transformation.
	Starting BB second half-transformation.
	Two-electron integral transformation complete.
	Frozen core energy     =   -288.60365295072296

	Size of irrep 0 of <AB|CD> integrals:    175.086 (MW) /   1400.687 (MB)
	Size of irrep 1 of <AB|CD> integrals:    134.328 (MW) /   1074.625 (MB)
	Size of irrep 2 of <AB|CD> integrals:    155.601 (MW) /   1244.805 (MB)
	Size of irrep 3 of <AB|CD> integrals:    155.601 (MW) /   1244.805 (MB)
	Total:                                   620.615 (MW) /   4964.922 (MB)

	Size of irrep 0 of <ab|cd> integrals:    179.185 (MW) /   1433.480 (MB)
	Size of irrep 1 of <ab|cd> integrals:    137.945 (MW) /   1103.560 (MB)
	Size of irrep 2 of <ab|cd> integrals:    159.668 (MW) /   1277.348 (MB)
	Size of irrep 3 of <ab|cd> integrals:    159.668 (MW) /   1277.348 (MB)
	Total:                                   636.467 (MW) /   5091.736 (MB)

	Size of irrep 0 of <Ab|Cd> integrals:    725.440 (MW) /   5803.523 (MB)
	Size of irrep 1 of <Ab|Cd> integrals:    544.476 (MW) /   4355.804 (MB)
	Size of irrep 2 of <Ab|Cd> integrals:    630.512 (MW) /   5044.097 (MB)
	Size of irrep 3 of <Ab|Cd> integrals:    630.512 (MW) /   5044.097 (MB)
	Total:                                  2530.940 (MW) /  20247.521 (MB)

	Size of irrep 0 of <IA|BC> integrals:     10.069 (MW) /     80.554 (MB)
	Size of irrep 1 of <IA|BC> integrals:      5.934 (MW) /     47.473 (MB)
	Size of irrep 2 of <IA|BC> integrals:      7.884 (MW) /     63.069 (MB)
	Size of irrep 3 of <IA|BC> integrals:      7.884 (MW) /     63.069 (MB)
	Total:                                    31.770 (MW) /    254.164 (MB)

      * MP2 total energy                      = -289.578580136976655
      * CCSD total energy                     = -289.596933434114305
*** Psi4 exiting successfully. Buy a developer a beer!
