                               Psi4 1.2a1.dev938

  ==> Input File <==

--------------------------------------------------------------------------
# Any line starting with the # character is a comment line
memory 250000 mb
molecule molecule{
-1 3
Si         0.0000000000        0.0000000000        0.0535071526
H          0.0000000000        0.0000000000       -1.4909370929
}

set {
  reference uhf
  basis aug-cc-pv(5+d)z
  scf_type OUT_OF_CORE
  freeze_core true
}

energy('ccsd')
--------------------------------------------------------------------------

    Molecular point group: c2v

    Geometry (in Angstrom), charge = -1, multiplicity = 3:

       Center              X                  Y                   Z               Mass
    ------------   -----------------  -----------------  -----------------  -----------------
          SI          0.000000000000     0.000000000000     0.053701670266    27.976926532460
           H          0.000000000000     0.000000000000    -1.490742575234     1.007825032070

  Charge       = -1
  Multiplicity = 3
  Basis Set: AUG-CC-PV(5+D)Z
    Blend: AUG-CC-PV(5+D)Z

    Orbital Energies (a.u.)
    -----------------------

    Alpha Occupied:

       1A1   -68.548749     2A1    -5.893461     1B1    -4.002540
       1B2    -4.002540     3A1    -3.992892     4A1    -0.435204
       5A1    -0.162749     2B2    -0.056520     2B1    -0.056520

    Alpha Virtual:

       6A1     0.128364     7A1     0.147744     3B1     0.164665
       3B2     0.164665     8A1     0.222235     4B1     0.236278
       4B2     0.236278     1A2     0.247646     9A1     0.247646
      10A1     0.251417    11A1     0.305620    12A1     0.349456
       5B1     0.371983     5B2     0.371983     6B1     0.421079
       6B2     0.421079     2A2     0.443023    13A1     0.443023
       7B2     0.444704     7B1     0.444704     8B1     0.460118
       8B2     0.460118    14A1     0.462677     3A2     0.491751
      15A1     0.491751    16A1     0.493263    17A1     0.504761
       9B1     0.571287     9B2     0.571287    18A1     0.591779
      19A1     0.681820    10B1     0.767240    10B2     0.767240
       4A2     0.808439    20A1     0.808439    21A1     0.844433
       5A2     0.925599    22A1     0.925599    11B1     0.926077
      11B2     0.926077    12B2     0.955133    12B1     0.955133
      23A1     0.961819     6A2     0.961819    13B2     0.966868
      13B1     0.966868     7A2     0.970867    24A1     0.970867
      25A1     0.992127    14B1     1.009284    14B2     1.009284
      26A1     1.035035    15B2     1.044538    15B1     1.044538
      27A1     1.066210     8A2     1.066210    28A1     1.092858
      16B2     1.134951    16B1     1.134951    29A1     1.208761
      30A1     1.360579    17B2     1.424140    17B1     1.424140
      18B2     1.575525    18B1     1.575525    31A1     1.602985
      32A1     1.640816    33A1     1.693126     9A2     1.693126
      19B1     1.730846    19B2     1.730846    34A1     1.871819
      10A2     1.911138    35A1     1.911138    20B2     1.929740
      20B1     1.929740    21B2     1.952658    21B1     1.952658
      11A2     2.001118    36A1     2.001118    22B2     2.024219
      22B1     2.024219    37A1     2.025083    23B2     2.060342
      23B1     2.060342    38A1     2.061355    12A2     2.061355
      13A2     2.077255    39A1     2.077255    14A2     2.081777
      40A1     2.081777    24B1     2.087184    24B2     2.087184
      25B2     2.205907    25B1     2.205907    41A1     2.223118
      42A1     2.244869    15A2     2.244869    26B1     2.269033
      26B2     2.269033    43A1     2.420976    27B2     2.487958
      27B1     2.487958    44A1     2.664988    28B2     2.824490
      28B1     2.824490    45A1     2.935840    16A2     2.956804
      46A1     2.956804    47A1     3.033983    29B2     3.115795
      29B1     3.115795    48A1     3.309117    17A2     3.309117
      49A1     3.598527    30B2     3.675340    30B1     3.675340
      18A2     3.701023    50A1     3.701023    31B2     3.743465
      31B1     3.743465    32B2     3.788002    32B1     3.788002
      33B2     3.828993    33B1     3.828993    19A2     3.908167
      51A1     3.908167    20A2     3.980158    52A1     3.980158
      53A1     3.989824    34B2     4.053730    34B1     4.053730
      54A1     4.066513    55A1     4.265841    35B2     4.303755
      35B1     4.303755    21A2     4.334005    56A1     4.334005
      36B2     4.341171    36B1     4.341171    57A1     4.457063
      22A2     4.457063    37B1     4.470968    37B2     4.470968
      38B2     4.495145    38B1     4.495145    39B1     4.499595
      39B2     4.499595    58A1     4.507121    23A2     4.507121
      59A1     4.556353    24A2     4.651006    60A1     4.651006
      61A1     4.761543    40B1     4.827479    40B2     4.827479
      62A1     4.875011    41B2     4.947832    41B1     4.947832
      63A1     5.534252    25A2     5.708499    64A1     5.708499
      65A1     5.931671    66A1     6.102849    26A2     6.102849
      42B2     6.199570    42B1     6.199570    43B2     6.439066
      43B1     6.439066    67A1     6.997291    44B2     7.223345
      44B1     7.223345    68A1     8.419320    69A1    10.027156
      27A2    10.027156    45B2    10.249897    45B1    10.249897
      70A1    10.413588    46B1    13.217293    46B2    13.217293
      71A1    13.405379    72A1    13.431588    28A2    13.431588
      47B2    13.462801    47B1    13.462801    29A2    13.499302
      73A1    13.499302    48B1    13.561092    48B2    13.561092
      30A2    13.646276    74A1    13.646276    49B2    13.668780
      49B1    13.668780    75A1    13.754973    50B2    14.259109
      50B1    14.259109    76A1    14.578460    77A1    14.661290
      31A2    14.661290    51B2    15.023372    51B1    15.023372
      78A1    15.517740    79A1    15.826046    52B2    17.766569
      52B1    17.766569    80A1    18.794223    81A1    41.432899

    Beta Occupied:

       1A1   -68.541231     2A1    -5.885081     3A1    -3.990114
       1B1    -3.981202     1B2    -3.981202     4A1    -0.347334
       5A1    -0.123771

    Beta Virtual:

       6A1     0.130461     7A1     0.148867     2B1     0.156479
       2B2     0.156479     8A1     0.234507     3B1     0.242273
       3B2     0.242273     9A1     0.254665    10A1     0.263375
       1A2     0.263375     4B1     0.272326     4B2     0.272326
      11A1     0.313797    12A1     0.358470     5B1     0.380706
       5B2     0.380706    13A1     0.451373     2A2     0.451373
       6B1     0.457444     6B2     0.457444     7B1     0.466550
       7B2     0.466550    14A1     0.471194     8B2     0.486747
       8B1     0.486747    15A1     0.508005    16A1     0.522820
      17A1     0.560839     3A2     0.560839     9B1     0.597573
       9B2     0.597573    18A1     0.600215    19A1     0.692416
      10B1     0.775283    10B2     0.775283    20A1     0.815279
       4A2     0.815279    21A1     0.852494    11B1     0.938842
      11B2     0.938842     5A2     0.942848    22A1     0.942848
      12B2     0.971746    12B1     0.971746    23A1     0.979549
       6A2     0.979549    13B2     1.002971    13B1     1.002971
      24A1     1.004064    25A1     1.026290     7A2     1.026290
      14B1     1.027649    14B2     1.027649    26A1     1.041534
      15B2     1.061843    15B1     1.061843    27A1     1.081450
       8A2     1.081450    28A1     1.106161    16B2     1.169567
      16B1     1.169567    29A1     1.214036    30A1     1.371046
      17B2     1.431594    17B1     1.431594    18B1     1.581637
      18B2     1.581637    31A1     1.613837    32A1     1.649470
      33A1     1.696878     9A2     1.696878    19B1     1.738086
      19B2     1.738086    34A1     1.879985    35A1     1.933023
      10A2     1.933023    20B2     1.968716    20B1     1.968716
      21B2     1.969417    21B1     1.969417    36A1     2.024151
      11A2     2.024151    37A1     2.036832    22B2     2.040015
      22B1     2.040015    38A1     2.078645    12A2     2.078645
      23B2     2.081449    23B1     2.081449    39A1     2.095867
      13A2     2.095867    24B1     2.108275    24B2     2.108275
      40A1     2.111026    14A2     2.111026    25B2     2.211777
      25B1     2.211777    41A1     2.230925    15A2     2.255227
      42A1     2.255227    26B1     2.281383    26B2     2.281383
      43A1     2.424329    27B2     2.494705    27B1     2.494705
      44A1     2.671988    28B2     2.836944    28B1     2.836944
      45A1     2.939239    16A2     2.964585    46A1     2.964585
      47A1     3.036181    29B2     3.125369    29B1     3.125369
      48A1     3.313581    17A2     3.313581    49A1     3.604090
      30B1     3.681408    30B2     3.681408    50A1     3.708176
      18A2     3.708176    31B2     3.755532    31B1     3.755532
      32B2     3.802386    32B1     3.802386    33B2     3.841835
      33B1     3.841835    51A1     3.918978    19A2     3.918978
      52A1     3.993128    20A2     3.993128    53A1     3.999859
      34B2     4.064878    34B1     4.064878    54A1     4.076517
      55A1     4.270501    35B2     4.306844    35B1     4.306844
      56A1     4.342942    21A2     4.342942    36B1     4.347708
      36B2     4.347708    22A2     4.481199    57A1     4.481199
      37B1     4.487917    37B2     4.487917    38B2     4.502191
      38B1     4.502191    39B1     4.522024    39B2     4.522024
      58A1     4.524323    23A2     4.524323    59A1     4.556013
      60A1     4.659893    24A2     4.659893    61A1     4.766081
      40B1     4.836732    40B2     4.836732    62A1     4.882137
      41B2     4.956253    41B1     4.956253    63A1     5.538211
      64A1     5.715029    25A2     5.715029    65A1     5.933172
      66A1     6.104335    26A2     6.104335    42B2     6.202205
      42B1     6.202205    43B2     6.440559    43B1     6.440559
      67A1     6.998080    44B2     7.225322    44B1     7.225322
      68A1     8.420853    69A1    10.037669    27A2    10.037669
      45B2    10.255701    45B1    10.255701    70A1    10.417725
      46B1    13.217201    46B2    13.217201    71A1    13.405040
      72A1    13.431776    28A2    13.431776    47B2    13.464792
      47B1    13.464792    29A2    13.499208    73A1    13.499208
      48B1    13.561274    48B2    13.561274    74A1    13.646398
      30A2    13.646398    49B2    13.678678    49B1    13.678678
      75A1    13.754848    50B2    14.260051    50B1    14.260051
      76A1    14.577616    31A2    14.660857    77A1    14.660857
      51B2    15.023740    51B1    15.023740    78A1    15.517098
      79A1    15.827744    52B2    17.765875    52B1    17.765875
      80A1    18.793463    81A1    41.438518

    Final Occupation by Irrep:
             A1    A2    B1    B2
    DOCC [     5,    0,    1,    1 ]
    SOCC [     0,    0,    1,    1 ]

  Energy converged.

  @UHF Final Energy:  -289.47035844030916

   => Energetics <=

    Nuclear Repulsion Energy =              4.7968587677061612
    One-Electron Energy =                -414.5333218955751136
    Two-Electron Energy =                 120.2661046875597606
    Total Energy =                       -289.4703584403091554

  UHF NO Occupations:
  HONO-2 :    5 A1 1.9816036
  HONO-1 :    2 B2 1.0000000
  HONO-0 :    2 B1 1.0000000
  LUNO+0 :    6 A1 0.0183964
  LUNO+1 :    7 A1 0.0005919
  LUNO+2 :    3 B2 0.0000027
  LUNO+3 :    3 B1 0.0000027

Properties will be evaluated at   0.000000,   0.000000,   0.000000 Bohr

Properties computed using the SCF density matrix

  Nuclear Dipole Moment: (a.u.)
     X:     0.0000      Y:     0.0000      Z:    -1.3964

  Electronic Dipole Moment: (a.u.)
     X:     0.0000      Y:     0.0000      Z:     1.3341

  Dipole Moment: (a.u.)
     X:     0.0000      Y:     0.0000      Z:    -0.0623     Total:     0.0623

  Dipole Moment: (Debye)
     X:     0.0000      Y:     0.0000      Z:    -0.1583     Total:     0.1583

*** tstop() called on cqc05 at Fri Aug 21 06:14:42 2020
Module time:
	user time   =      53.18 seconds =       0.89 minutes
	system time =       2.88 seconds =       0.05 minutes
	total time  =         55 seconds =       0.92 minutes
Total time:
	user time   =      53.18 seconds =       0.89 minutes
	system time =       2.88 seconds =       0.05 minutes
	total time  =         55 seconds =       0.92 minutes

*** tstart() called on cqc05
*** at Fri Aug 21 06:14:42 2020

	Wfn Parameters:
	--------------------
	Wavefunction         = CCSD
	Number of irreps     = 4
	Number of MOs        = 216
	Number of active MOs = 211
	AO-Basis             = NONE
	Semicanonical        = false
	Reference            = UHF
	Print Level          = 1

	IRREP	# MOs	# FZDC	# DOCC	# SOCC	# VIRT	# FZVR
	-----	-----	------	------	------	------	------
	 A1	   81	    3	    2	    0	    76	    0
	 A2	   31	    0	    0	    0	    31	    0
	 B1	   52	    1	    0	    1	    50	    0
	 B2	   52	    1	    0	    1	    50	    0
	Transforming integrals...
	IWL integrals will be deleted.
	(OO|OO)...
	Presorting SO-basis two-electron integrals.
	Sorting File: SO Ints (nn|nn) nbuckets = 1
	Transforming the one-electron integrals and constructing Fock matrices
	Starting AA/AB first half-transformation.
	Sorting AA/AB half-transformed integrals.
	Starting BB first half-transformation.
	Sorting BB half-transformed integrals.
	First half integral transformation complete.
	Starting AA second half-transformation.
	Starting AB second half-transformation.
	Starting BB second half-transformation.
	Two-electron integral transformation complete.
	(OO|OV)...
	Starting AA second half-transformation.
	Starting AB second half-transformation.
	Starting BB second half-transformation.
	Two-electron integral transformation complete.
	(OO|VV)...
	Starting AA second half-transformation.
	Starting AB second half-transformation.
	Starting BB second half-transformation.
	Two-electron integral transformation complete.
	(OV|OO)...
	Starting AA/AB first half-transformation.
	Sorting AA/AB half-transformed integrals.
	Starting BB first half-transformation.
	Sorting BB half-transformed integrals.
	First half integral transformation complete.
	Starting AA second half-transformation.
	Starting AB second half-transformation.
	Starting BB second half-transformation.
	Two-electron integral transformation complete.
	(OV|OV)...
	Starting AA second half-transformation.
	Starting AB second half-transformation.
	Starting BB second half-transformation.
	Two-electron integral transformation complete.
	(OV|VV)...
	Starting AA second half-transformation.
	Starting AB second half-transformation.
	Starting BB second half-transformation.
	Two-electron integral transformation complete.
	(VV|OO)...
	Starting AA/AB first half-transformation.
	Sorting AA/AB half-transformed integrals.
	Starting BB first half-transformation.
	Sorting BB half-transformed integrals.
	First half integral transformation complete.
	Starting AA second half-transformation.
	Starting AB second half-transformation.
	Starting BB second half-transformation.
	Two-electron integral transformation complete.
	(VV|OV)...
	Starting AA second half-transformation.
	Starting AB second half-transformation.
	Starting BB second half-transformation.
	Two-electron integral transformation complete.
	(VV|VV)...
	Starting AA second half-transformation.
	Starting AB second half-transformation.
	Starting BB second half-transformation.
	Two-electron integral transformation complete.
	Frozen core energy     =   -288.60361455495263

	Size of irrep 0 of <AB|CD> integrals:     33.235 (MW) /    265.882 (MB)
	Size of irrep 1 of <AB|CD> integrals:     23.581 (MW) /    188.646 (MB)
	Size of irrep 2 of <AB|CD> integrals:     28.622 (MW) /    228.980 (MB)
	Size of irrep 3 of <AB|CD> integrals:     28.622 (MW) /    228.980 (MB)
	Total:                                   114.061 (MW) /    912.488 (MB)

	Size of irrep 0 of <ab|cd> integrals:     34.398 (MW) /    275.186 (MB)
	Size of irrep 1 of <ab|cd> integrals:     24.572 (MW) /    196.575 (MB)
	Size of irrep 2 of <ab|cd> integrals:     29.779 (MW) /    238.231 (MB)
	Size of irrep 3 of <ab|cd> integrals:     29.779 (MW) /    238.231 (MB)
	Total:                                   118.528 (MW) /    948.222 (MB)

	Size of irrep 0 of <Ab|Cd> integrals:    140.115 (MW) /   1120.917 (MB)
	Size of irrep 1 of <Ab|Cd> integrals:     96.275 (MW) /    770.203 (MB)
	Size of irrep 2 of <Ab|Cd> integrals:    116.791 (MW) /    934.330 (MB)
	Size of irrep 3 of <Ab|Cd> integrals:    116.791 (MW) /    934.330 (MB)
	Total:                                   469.972 (MW) /   3759.779 (MB)

	Size of irrep 0 of <IA|BC> integrals:      2.958 (MW) /     23.662 (MB)
	Size of irrep 1 of <IA|BC> integrals:      1.573 (MW) /     12.587 (MB)
	Size of irrep 2 of <IA|BC> integrals:      2.215 (MW) /     17.719 (MB)
	Size of irrep 3 of <IA|BC> integrals:      2.215 (MW) /     17.719 (MB)
	Total:                                     8.961 (MW) /     71.687 (MB)

	Size of irrep 0 of <ia|bc> integrals:      1.815 (MW) /     14.518 (MB)
	Size of irrep 1 of <ia|bc> integrals:      0.615 (MW) /      4.917 (MB)
	Size of irrep 2 of <ia|bc> integrals:      1.113 (MW) /      8.906 (MB)
	Size of irrep 3 of <ia|bc> integrals:      1.113 (MW) /      8.906 (MB)
	Total:                                     4.656 (MW) /     37.247 (MB)

	Size of irrep 0 of <Ia|Bc> integrals:      3.007 (MW) /     24.053 (MB)
	Size of irrep 1 of <Ia|Bc> integrals:      1.609 (MW) /     12.873 (MB)
	Size of irrep 2 of <Ia|Bc> integrals:      2.259 (MW) /     18.069 (MB)
	Size of irrep 3 of <Ia|Bc> integrals:      2.259 (MW) /     18.069 (MB)
	Total:                                     9.133 (MW) /     73.065 (MB)

	Size of irrep 0 of <iA|bC> integrals:      1.799 (MW) /     14.394 (MB)
	Size of irrep 1 of <iA|bC> integrals:      0.608 (MW) /      4.867 (MB)
	Size of irrep 2 of <iA|bC> integrals:      1.081 (MW) /      8.646 (MB)
	Size of irrep 3 of <iA|bC> integrals:      1.081 (MW) /      8.646 (MB)
	Total:                                     4.569 (MW) /     36.552 (MB)

	Size of irrep 0 of tIjAb amplitudes:       0.047 (MW) /      0.379 (MB)
	Size of irrep 1 of tIjAb amplitudes:       0.000 (MW) /      0.000 (MB)
	Size of irrep 2 of tIjAb amplitudes:       0.022 (MW) /      0.173 (MB)
	Size of irrep 3 of tIjAb amplitudes:       0.022 (MW) /      0.173 (MB)
	Total:                                     0.091 (MW) /      0.725 (MB)

	Nuclear Rep. energy          =      4.79685876770616
	SCF energy                   =   -289.47035844030916
	One-electron energy          =    -10.14510640171519
	Two-electron (AA) energy     =      1.55403470461682
	Two-electron (BB) energy     =      0.25195156187606
	Two-electron (AB) energy     =      2.67551748215959
	Two-electron energy          =      4.48150374865246
	Reference energy             =   -289.47035844030921

*** tstop() called on cqc05 at Fri Aug 21 06:15:53 2020
Module time:
	user time   =      43.80 seconds =       0.73 minutes
	system time =      26.29 seconds =       0.44 minutes
	total time  =         71 seconds =       1.18 minutes
Total time:
	user time   =      96.98 seconds =       1.62 minutes
	system time =      29.17 seconds =       0.49 minutes
	total time  =        126 seconds =       2.10 minutes

*** tstart() called on cqc05
*** at Fri Aug 21 06:15:53 2020

            **************************
            *                        *
            *        CCENERGY        *
            *                        *
            **************************

    Nuclear Rep. energy (wfn)     =    4.796858767706161
    SCF energy          (wfn)     = -289.470358440309155
    Reference energy    (file100) = -289.470358440309212

    Input parameters:
    -----------------
    Wave function   =     CCSD
    Reference wfn   =     UHF
    Brueckner       =     No
    Memory (Mbytes) =     250000.0
    Maxiter         =     50
    R_Convergence   =     1.0e-07
    E_Convergence   =     1.0e-06
    Restart         =     Yes
    DIIS            =     Yes
    AO Basis        =     NONE
    ABCD            =     NEW
    Cache Level     =     2
    Cache Type      =     LRU
    Print Level     =     1
    Num. of threads =     4

      * MP2 total energy                      = -289.577370093112052
      * CCSD total energy                     = -289.596373409238936
*** Psi4 exiting successfully. Buy a developer a beer!
