                               Psi4 1.4a3.dev88

  ==> Input File <==

--------------------------------------------------------------------------
# Any line starting with the # character is a comment line
memory 250000 mb
molecule molecule{
0 1
S          0.0000000956        0.0000000000        0.0000000000
O          0.7168981180       -1.2417042476        0.0000000000
O          0.7168981180        1.2417042476        0.0000000000
O         -1.4337962317        0.0000000000        0.0000000000
}

set {
  reference rhf
  basis aug-cc-pV(d+d)Z
  scf_type OUT_OF_CORE
  freeze_core true
}

energy('ccsd(t)')
--------------------------------------------------------------------------

    Molecular point group: c2v

    Geometry (in Angstrom), charge = 0, multiplicity = 1:

       Center              X                  Y                   Z               Mass
    ------------   -----------------  -----------------  -----------------  -----------------
         S           -0.000000000000     0.000000000000     0.000000056513    31.972071174400
         O           -0.000000000000     1.241704247600     0.716898078913    15.994914619570
         O            0.000000000000    -1.241704247600     0.716898078913    15.994914619570
         O           -0.000000000000     0.000000000000    -1.433796270787    15.994914619570

  Charge       = 0
  Multiplicity = 1
  Basis Set: AUG-CC-PV(D+D)Z
    Blend: AUG-CC-PV(D+D)Z

    Orbital Energies [Eh]
    ---------------------

    Doubly Occupied:

       1A1   -92.295381     1B2   -20.668903     2A1   -20.668903
       3A1   -20.668859     4A1    -9.261948     1B1    -6.948679
       5A1    -6.946225     2B2    -6.946225     6A1    -1.585025
       3B2    -1.442407     7A1    -1.442407     8A1    -0.877679
       4B2    -0.750290     9A1    -0.750290     2B1    -0.747401
       5B2    -0.620827    10A1    -0.620827     1A2    -0.569946
       3B1    -0.569946     6B2    -0.537324

  @RHF Final Energy:  -622.06958890349688

   => Energetics <=

    Nuclear Repulsion Energy =            182.6368132858291347
    One-Electron Energy =               -1219.5738224275537505
    Two-Electron Energy =                 414.8674202382276803
    Total Energy =                       -622.0695889034968786

  Dipole Moment: [D]
     X:    -0.0000      Y:     0.0000      Z:     0.0000     Total:     0.0000

      * MP2 total energy                      = -622.823714145829285
      * CCSD total energy                     = -622.813987627181177
      * CCSD(T) total energy                  = -622.846570751645345
*** Psi4 exiting successfully. Buy a developer a beer!
