                               Psi4 1.4a3.dev88

  ==> Input File <==

--------------------------------------------------------------------------
# Any line starting with the # character is a comment line
memory 250000 mb
molecule molecule{
0 1
S          0.0000000956        0.0000000000        0.0000000000
O          0.7168981180       -1.2417042476        0.0000000000
O          0.7168981180        1.2417042476        0.0000000000
O         -1.4337962317        0.0000000000        0.0000000000
}

set {
  reference rhf
  basis aug-cc-pV(6+d)Z
  scf_type OUT_OF_CORE
  freeze_core true
}

energy('ccsd(t)')
--------------------------------------------------------------------------

    Molecular point group: c2v

    Geometry (in Angstrom), charge = 0, multiplicity = 1:

       Center              X                  Y                   Z               Mass
    ------------   -----------------  -----------------  -----------------  -----------------
         S           -0.000000000000     0.000000000000     0.000000056513    31.972071174400
         O           -0.000000000000     1.241704247600     0.716898078913    15.994914619570
         O            0.000000000000    -1.241704247600     0.716898078913    15.994914619570
         O           -0.000000000000     0.000000000000    -1.433796270787    15.994914619570

  Charge       = 0
  Multiplicity = 1
  Basis Set: AUG-CC-PV(6+D)Z
    Blend: AUG-CC-PV(6+D)Z

    Orbital Energies [Eh]
    ---------------------

    Doubly Occupied:

       1A1   -92.268065     2A1   -20.654516     1B2   -20.654516
       3A1   -20.654467     4A1    -9.236702     1B1    -6.925488
       5A1    -6.920057     2B2    -6.920057     6A1    -1.574330
       7A1    -1.433071     3B2    -1.433071     8A1    -0.870630
       9A1    -0.744921     4B2    -0.744921     2B1    -0.743642
       5B2    -0.620411    10A1    -0.620411     1A2    -0.571551
       3B1    -0.571551     6B2    -0.540663

  @RHF Final Energy:  -622.19427180181947

   => Energetics <=

    Nuclear Repulsion Energy =            182.6368132858291347
    One-Electron Energy =               -1220.2560865493078381
    Two-Electron Energy =                 415.4250014616592352
    Total Energy =                       -622.1942718018193546

  Dipole Moment: [D]
     X:    -0.0000      Y:     0.0000      Z:    -0.0000     Total:     0.0000

      * MP2 total energy                      = -623.211539614880621
      * CCSD total energy                     = -623.175708951459683
      * CCSD(T) total energy                  = -623.227836994145605
*** Psi4 exiting successfully. Buy a developer a beer!
