                               Psi4 1.4a3.dev88

  ==> Input File <==

--------------------------------------------------------------------------
# Any line starting with the # character is a comment line
memory 250000 mb
molecule molecule{
0 1
S          0.0000000956        0.0000000000        0.0000000000
O          0.7168981180       -1.2417042476        0.0000000000
O          0.7168981180        1.2417042476        0.0000000000
O         -1.4337962317        0.0000000000        0.0000000000
}

set {
  reference rhf
  basis aug-cc-pV(Q+d)Z
  scf_type OUT_OF_CORE
  freeze_core true
}

energy('ccsd(t)')
--------------------------------------------------------------------------

    Molecular point group: c2v

    Geometry (in Angstrom), charge = 0, multiplicity = 1:

       Center              X                  Y                   Z               Mass
    ------------   -----------------  -----------------  -----------------  -----------------
         S           -0.000000000000     0.000000000000     0.000000056513    31.972071174400
         O           -0.000000000000     1.241704247600     0.716898078913    15.994914619570
         O            0.000000000000    -1.241704247600     0.716898078913    15.994914619570
         O           -0.000000000000     0.000000000000    -1.433796270787    15.994914619570

  Charge       = 0
  Multiplicity = 1
  Basis Set: AUG-CC-PV(Q+D)Z
    Blend: AUG-CC-PV(Q+D)Z

    Orbital Energies [Eh]
    ---------------------

    Doubly Occupied:

       1A1   -92.272210     1B2   -20.655356     2A1   -20.655356
       3A1   -20.655307     4A1    -9.238739     1B1    -6.927583
       5A1    -6.921937     2B2    -6.921937     6A1    -1.574884
       3B2    -1.433525     7A1    -1.433525     8A1    -0.870974
       4B2    -0.745143     9A1    -0.745143     2B1    -0.743916
       5B2    -0.620288    10A1    -0.620288     1A2    -0.571424
       3B1    -0.571424     6B2    -0.540803

  @RHF Final Energy:  -622.18756194926630

   => Energetics <=

    Nuclear Repulsion Energy =            182.6368132858291347
    One-Electron Energy =               -1220.2092268434430480
    Two-Electron Energy =                 415.3848516083475033
    Total Energy =                       -622.1875619492662963

  Dipole Moment: [D]
     X:    -0.0000      Y:     0.0000      Z:     0.0000     Total:     0.0000

      * MP2 total energy                      = -623.166382845682051
      * CCSD total energy                     = -623.141078359982998
      * CCSD(T) total energy                  = -623.191338401447297
*** Psi4 exiting successfully. Buy a developer a beer!
