                               Psi4 1.4a3.dev88

  ==> Input File <==

--------------------------------------------------------------------------
# Any line starting with the # character is a comment line
memory 250000 mb
molecule molecule{
0 1
S          0.0000000956        0.0000000000        0.0000000000
O          0.7168981180       -1.2417042476        0.0000000000
O          0.7168981180        1.2417042476        0.0000000000
O         -1.4337962317        0.0000000000        0.0000000000
}

set {
  reference rhf
  basis aug-cc-pV(t+d)Z
  scf_type OUT_OF_CORE
  freeze_core true
}

energy('ccsd(t)')
--------------------------------------------------------------------------

    Molecular point group: c2v

    Geometry (in Angstrom), charge = 0, multiplicity = 1:

       Center              X                  Y                   Z               Mass
    ------------   -----------------  -----------------  -----------------  -----------------
         S           -0.000000000000     0.000000000000     0.000000056513    31.972071174400
         O           -0.000000000000     1.241704247600     0.716898078913    15.994914619570
         O            0.000000000000    -1.241704247600     0.716898078913    15.994914619570
         O           -0.000000000000     0.000000000000    -1.433796270787    15.994914619570

  Charge       = 0
  Multiplicity = 1
  Basis Set: AUG-CC-PV(T+D)Z
    Blend: AUG-CC-PV(T+D)Z

    Orbital Energies [Eh]
    ---------------------

    Doubly Occupied:

       1A1   -92.275104     2A1   -20.658696     1B2   -20.658696
       3A1   -20.658647     4A1    -9.241178     1B1    -6.929421
       5A1    -6.924134     2B2    -6.924134     6A1    -1.576194
       7A1    -1.434864     3B2    -1.434864     8A1    -0.871586
       9A1    -0.745466     4B2    -0.745466     2B1    -0.743987
       5B2    -0.620367    10A1    -0.620367     3B1    -0.571401
       1A2    -0.571401     6B2    -0.540696

  @RHF Final Energy:  -622.16686195687601

   => Energetics <=

    Nuclear Repulsion Energy =            182.6368132858291347
    One-Electron Energy =               -1220.1140177231548023
    Two-Electron Energy =                 415.3103424804498331
    Total Energy =                       -622.1668619568758913

  Dipole Moment: [D]
     X:    -0.0000      Y:     0.0000      Z:     0.0000     Total:     0.0000

      * MP2 total energy                      = -623.083227921707248
      * CCSD total energy                     = -623.065401986329221
      * CCSD(T) total energy                  = -623.112128019984425
*** Psi4 exiting successfully. Buy a developer a beer!
