                               Psi4 1.4a3.dev88

  ==> Input File <==

--------------------------------------------------------------------------
# Any line starting with the # character is a comment line
memory 250000 mb
molecule molecule{
0 1
S          0.0000000956        0.0000000000        0.0000000000
O          0.7168981180       -1.2417042476        0.0000000000
O          0.7168981180        1.2417042476        0.0000000000
O         -1.4337962317        0.0000000000        0.0000000000
}

set {
  reference rhf
  basis aug-cc-pV(5+d)Z
  scf_type OUT_OF_CORE
  freeze_core true
}

energy('ccsd(t)')
--------------------------------------------------------------------------

    Molecular point group: c2v

    Geometry (in Angstrom), charge = 0, multiplicity = 1:

       Center              X                  Y                   Z               Mass
    ------------   -----------------  -----------------  -----------------  -----------------
         S           -0.000000000000     0.000000000000     0.000000056513    31.972071174400
         O           -0.000000000000     1.241704247600     0.716898078913    15.994914619570
         O            0.000000000000    -1.241704247600     0.716898078913    15.994914619570
         O           -0.000000000000     0.000000000000    -1.433796270787    15.994914619570

  Charge       = 0
  Multiplicity = 1
  Basis Set: AUG-CC-PV(5+D)Z
    Blend: AUG-CC-PV(5+D)Z

    Orbital Energies [Eh]
    ---------------------

    Doubly Occupied:

       1A1   -92.268833     2A1   -20.654552     1B2   -20.654552
       3A1   -20.654503     4A1    -9.237240     1B1    -6.926094
       5A1    -6.920556     2B2    -6.920556     6A1    -1.574427
       7A1    -1.433123     3B2    -1.433123     8A1    -0.870696
       4B2    -0.744956     9A1    -0.744956     2B1    -0.743739
       5B2    -0.620345    10A1    -0.620345     3B1    -0.571503
       1A2    -0.571503     6B2    -0.540688

  @RHF Final Energy:  -622.19306276897180

   => Energetics <=

    Nuclear Repulsion Energy =            182.6368132858291347
    One-Electron Energy =               -1220.2471736821760260
    Two-Electron Energy =                 415.4172976273752056
    Total Energy =                       -622.1930627689717994

  Dipole Moment: [D]
     X:    -0.0000      Y:     0.0000      Z:     0.0000     Total:     0.0000

      * MP2 total energy                      = -623.198319929136119
      * CCSD total energy                     = -623.166404816212889
      * CCSD(T) total energy                  = -623.218034402334979
*** Psi4 exiting successfully. Buy a developer a beer!
