                               Psi4 1.2a1.dev938

  ==> Input File <==

--------------------------------------------------------------------------
# Any line starting with the # character is a comment line
memory 250000 mb
molecule molecule{
0 3
O          0.0000000000        0.0000000000        0.6268479116
O          0.0000000000        0.0000000000       -0.6268479116
}

set {
  reference uhf
  basis aug-cc-pv(6+d)z
  scf_type OUT_OF_CORE
  freeze_core true
}

energy('ccsd')
--------------------------------------------------------------------------

    Molecular point group: d2h

    Geometry (in Angstrom), charge = 0, multiplicity = 3:

       Center              X                  Y                   Z               Mass
    ------------   -----------------  -----------------  -----------------  -----------------
           O          0.000000000000     0.000000000000     0.626847911600    15.994914619560
           O          0.000000000000     0.000000000000    -0.626847911600    15.994914619560

  Charge       = 0
  Multiplicity = 3
  Basis Set: AUG-CC-PV(6+D)Z
    Blend: AUG-CC-PV(6+D)Z

    Orbital Energies (a.u.)
    -----------------------

    Alpha Occupied:

       1Ag   -20.764105     1B1u  -20.763546     2Ag    -1.681735
       2B1u   -1.224710     1B3u   -0.830842     1B2u   -0.830842
       3Ag    -0.752362     1B2g   -0.577873     1B3g   -0.577873

    Alpha Virtual:

       3B1u    0.054909     2B3u    0.076818     2B2u    0.076818
       4Ag     0.080851     2B2g    0.107746     2B3g    0.107746
       5Ag     0.117842     4B1u    0.181323     6Ag     0.323704
       1B1g    0.323704     3B3u    0.333390     3B2u    0.333390
       5B1u    0.347642     7Ag     0.350435     8Ag     0.382063
       3B2g    0.391080     3B3g    0.391080     6B1u    0.415769
       7B1u    0.416375     1Au     0.416375     4B2u    0.435072
       4B3u    0.435072     4B2g    0.473164     4B3g    0.473164
       8B1u    0.536839     9Ag     0.684243     5B2u    0.745723
       5B3u    0.745723    10Ag     0.884631     2B1g    0.884631
       9B1u    0.900115     2Au     0.922358    10B1u    0.922358
       5B2g    0.923416     5B3g    0.923416     6B2u    0.935237
       6B3u    0.935237    11Ag     0.942991    12Ag     0.993491
       3B1g    0.993491     6B3g    1.017570     6B2g    1.017570
      11B1u    1.030519    13Ag     1.054204     7B3u    1.066002
       7B2u    1.066002     7B2g    1.128999     7B3g    1.128999
       8B2u    1.224217     8B3u    1.224217    12B1u    1.301748
       3Au     1.355273    13B1u    1.355273    14B1u    1.707827
       8B3g    1.799297     8B2g    1.799297    14Ag     1.815139
      15Ag     1.916655     4B1g    1.916655    16Ag     1.935750
       9B3u    2.061776     9B2u    2.061776    17Ag     2.171084
       5B1g    2.171084    10B3u    2.206218    10B2u    2.206218
       4Au     2.225779    15B1u    2.225779    16B1u    2.227601
      11B3u    2.230767    11B2u    2.230767    17B1u    2.234993
       5Au     2.234993     9B2g    2.288816     9B3g    2.288816
      12B3u    2.321552    12B2u    2.321552     6B1g    2.374427
      18Ag     2.374427    19Ag     2.510163    10B2g    2.535417
      10B3g    2.535417     6Au     2.591989    18B1u    2.591989
      20Ag     2.633604    11B2g    2.733867    11B3g    2.733867
       7B1g    2.768827    21Ag     2.768827    12B2g    2.806942
      12B3g    2.806942    19B1u    2.833396    13B3u    2.911908
      13B2u    2.911908    13B2g    2.977820    13B3g    2.977820
      20B1u    3.066236    22Ag     3.154298    14B3u    3.460934
      14B2u    3.460934    21B1u    3.522024     7Au     3.554094
      22B1u    3.554094    23Ag     4.031593    15B2u    4.230816
      15B3u    4.230816     8B1g    4.295721    24Ag     4.295721
      14B2g    4.565078    14B3g    4.565078    15B2g    4.614641
      15B3g    4.614641    16B3u    4.763884    16B2u    4.763884
      25Ag     4.890367     9B1g    4.890367    17B3u    4.905277
      17B2u    4.905277    23B1u    4.994789    24B1u    5.065565
      25B1u    5.103221     8Au     5.103221    26Ag     5.155453
       9Au     5.163686    26B1u    5.163686    16B2g    5.236249
      16B3g    5.236249    10B1g    5.278079    27Ag     5.278079
      28Ag     5.335314    11B1g    5.335314    18B3u    5.343730
      18B2u    5.343730    19B3u    5.380501    19B2u    5.380501
      17B2g    5.391458    17B3g    5.391458    20B3u    5.412091
      20B2u    5.412091    29Ag     5.456572    18B2g    5.495112
      18B3g    5.495112    27B1u    5.563001    10Au     5.563001
      28B1u    5.580874    11Au     5.580874    19B2g    5.839464
      19B3g    5.839464    21B3u    5.864848    21B2u    5.864848
      12B1g    5.934854    30Ag     5.934854    31Ag     6.204511
      29B1u    6.282994    12Au     6.391068    30B1u    6.391068
      32Ag     6.471010    13B1g    6.471010    20B2g    6.569763
      20B3g    6.569763    21B3g    6.726786    21B2g    6.726786
      31B1u    6.773516    33Ag     7.047728    22B3u    7.135087
      22B2u    7.135087    34Ag     7.218200    32B1u    7.500778
      22B2g    8.316247    22B3g    8.316247    33B1u    8.451236
      13Au     8.451236    23B3u    8.627084    23B2u    8.627084
      24B2u    8.905597    24B3u    8.905597    34B1u    9.157769
      35Ag     9.163743    14B1g    9.163743    36Ag     9.202292
      15B1g    9.202292    23B2g    9.392267    23B3g    9.392267
      35B1u    9.447624    14Au     9.447624    25B3u    9.918463
      25B2u    9.918463    24B2g   10.029083    24B3g   10.029083
      37Ag    10.383517    16B1g   10.383517    26B3u   10.388172
      26B2u   10.388172    38Ag    10.652092    17B1g   10.652092
      27B2u   10.652447    27B3u   10.652447    36B1u   10.660948
      37B1u   10.662001    15Au    10.662001    39Ag    10.740211
      40Ag    10.770292    38B1u   10.829515    25B2g   10.849808
      25B3g   10.849808    39B1u   11.024041    16Au    11.024041
      26B2g   11.033449    26B3g   11.033449    28B3u   11.064238
      28B2u   11.064238    41Ag    11.174048    18B1g   11.174048
      29B3u   11.175037    29B2u   11.175037    27B2g   11.362933
      27B3g   11.362933    17Au    11.397238    40B1u   11.397238
      42Ag    11.452488    41B1u   11.935582    18Au    11.935582
      28B2g   12.050715    28B3g   12.050715    30B2u   12.124702
      30B3u   12.124702    29B2g   12.142449    29B3g   12.142449
      43Ag    12.425783    19B1g   12.425783    20B1g   12.845447
      44Ag    12.845447    31B3u   12.993672    31B2u   12.993672
      32B2u   13.025985    32B3u   13.025985    42B1u   13.030903
      19Au    13.030903    30B2g   13.128526    30B3g   13.128526
      43B1u   13.266321    45Ag    13.486656    44B1u   13.623214
      20Au    13.623214    46Ag    13.866526    21B1g   13.866526
      31B2g   13.918047    31B3g   13.918047    33B3u   13.982313
      33B2u   13.982313    32B3g   14.169864    32B2g   14.169864
      47Ag    14.306986    45B1u   14.313020    48Ag    15.029774
      22B1g   15.029774    46B1u   15.187238    21Au    15.187238
      47B1u   15.334192    33B2g   15.794144    33B3g   15.794144
      48B1u   16.681116    22Au    16.681116    49B1u   17.550712
      34B3u   17.551340    34B2u   17.551340    34B2g   17.959255
      34B3g   17.959255    49Ag    18.228078    50Ag    21.442448
      35B2u   22.213320    35B3u   22.213320    51Ag    22.374691
      23B1g   22.374691    52Ag    22.490993    36B2u   22.512242
      36B3u   22.512242    53Ag    22.598399    24B1g   22.598399
      54Ag    22.656989    25B1g   22.656989    23Au    22.697895
      50B1u   22.697895    37B3u   22.754986    37B2u   22.754986
      51B1u   22.850673    35B2g   22.908719    35B3g   22.908719
      38B3u   23.039517    38B2u   23.039517    36B2g   23.313584
      36B3g   23.313584    52B1u   23.350657    24Au    23.350657
      37B3g   23.923347    37B2g   23.923347    53B1u   24.588279
      54B1u   24.607977    25Au    24.607977    38B3g   25.015773
      38B2g   25.015773    55Ag    25.254435    56Ag    26.621378
      26B1g   26.621378    39B3u   26.658541    39B2u   26.658541
      39B2g   26.763730    39B3g   26.763730    40B3u   26.804510
      40B2u   26.804510    26Au    26.981166    55B1u   26.981166
      56B1u   27.155401    40B3g   27.274678    40B2g   27.274678
      57Ag    27.280682    27B1g   27.280682    58Ag    27.312834
      41B2u   27.399445    41B3u   27.399445    57B1u   27.412849
      27Au    27.412849    41B3g   27.452229    41B2g   27.452229
      58B1u   27.981942    42B2u   28.310873    42B3u   28.310873
      42B3g   28.580798    42B2g   28.580798    59Ag    28.659477
      28B1g   28.659477    59B1u   30.547697    60B1u   30.660903
      28Au    30.660903    43B2u   30.923085    43B3u   30.923085
      60Ag    31.014522    61Ag    31.324893    29B1g   31.324893
      43B3g   31.335333    43B2g   31.335333    44B2u   31.368240
      44B3u   31.368240    61B1u   31.427218    29Au    31.427218
      45B2u   31.700390    45B3u   31.700390    44B3g   31.832166
      44B2g   31.832166    62Ag    31.851667    30B1g   31.851667
      62B1u   32.281414    30Au    32.281414    63B1u   33.409780
      63Ag    33.748827    45B3g   33.884051    45B2g   33.884051
      64Ag    34.471690    31B1g   34.471690    64B1u   35.104655
      31Au    35.104655    46B2u   36.172896    46B3u   36.172896
      46B3g   36.628742    46B2g   36.628742    65Ag    37.267746
      65B1u   38.905495    66Ag   101.927335    66B1u  106.039917

    Beta Occupied:

       1Ag   -20.708941     1B1u  -20.707912     2Ag    -1.543462
       2B1u   -1.009655     3Ag    -0.694698     1B2u   -0.557069
       1B3u   -0.557069

    Beta Virtual:

       3B1u    0.055747     1B3g    0.070133     1B2g    0.070133
       2B2u    0.079215     2B3u    0.079215     4Ag     0.081917
       5Ag     0.116770     2B3g    0.122325     2B2g    0.122325
       4B1u    0.187707     1B1g    0.321263     6Ag     0.321263
       7Ag     0.347419     3B2u    0.350270     3B3u    0.350270
       5B1u    0.372190     8Ag     0.386736     1Au     0.417807
       6B1u    0.417807     3B3g    0.423400     3B2g    0.423400
       7B1u    0.435266     4B3u    0.438600     4B2u    0.438600
       4B2g    0.476078     4B3g    0.476078     8B1u    0.576070
       9Ag     0.685264     5B3u    0.743672     5B2u    0.743672
       2B1g    0.882159    10Ag     0.882159     9B1u    0.910810
       5B2g    0.924202     5B3g    0.924202     2Au     0.930414
      10B1u    0.930414     6B3u    0.942161     6B2u    0.942161
      11Ag     0.945012     3B1g    1.007070    12Ag     1.007070
       6B2g    1.019493     6B3g    1.019493    11B1u    1.034393
      13Ag     1.061625     7B2u    1.108834     7B3u    1.108834
       7B3g    1.189050     7B2g    1.189050     8B3u    1.253631
       8B2u    1.253631    12B1u    1.311178     3Au     1.381244
      13B1u    1.381244    14B1u    1.724431     8B2g    1.807898
       8B3g    1.807898    14Ag     1.825030     4B1g    1.915466
      15Ag     1.915466    16Ag     1.948149     9B2u    2.059224
       9B3u    2.059224    17Ag     2.175406     5B1g    2.175406
      10B3u    2.208592    10B2u    2.208592     4Au     2.228739
      15B1u    2.228739    16B1u    2.232030    17B1u    2.237038
       5Au     2.237038    11B2u    2.239695    11B3u    2.239695
       9B3g    2.298635     9B2g    2.298635    12B2u    2.356165
      12B3u    2.356165    18Ag     2.403417     6B1g    2.403417
      19Ag     2.512178    10B2g    2.536502    10B3g    2.536502
       6Au     2.658570    18B1u    2.658570    20Ag     2.671472
      11B2g    2.739819    11B3g    2.739819     7B1g    2.802205
      21Ag     2.802205    19B1u    2.854338    12B3g    2.862099
      12B2g    2.862099    13B2u    2.983342    13B3u    2.983342
      13B3g    3.019704    13B2g    3.019704    20B1u    3.080639
      22Ag     3.172366    14B3u    3.470001    14B2u    3.470001
      21B1u    3.538037     7Au     3.577532    22B1u    3.577532
      23Ag     4.067131    15B3u    4.232547    15B2u    4.232547
      24Ag     4.295060     8B1g    4.295060    14B3g    4.607606
      14B2g    4.607606    15B2g    4.618800    15B3g    4.618800
      16B3u    4.765603    16B2u    4.765603    25Ag     4.903039
       9B1g    4.903039    17B2u    4.917712    17B3u    4.917712
      23B1u    5.009765    24B1u    5.075186    25B1u    5.116357
       8Au     5.116357    26Ag     5.167940     9Au     5.169048
      26B1u    5.169048    16B2g    5.246763    16B3g    5.246763
      10B1g    5.293763    27Ag     5.293763    28Ag     5.342183
      11B1g    5.342183    18B3u    5.352808    18B2u    5.352808
      17B2g    5.399012    17B3g    5.399012    19B3u    5.418960
      19B2u    5.418960    20B3u    5.421555    20B2u    5.421555
      29Ag     5.466328    18B2g    5.534042    18B3g    5.534042
      10Au     5.596450    27B1u    5.596450    28B1u    5.603307
      11Au     5.603307    19B2g    5.851690    19B3g    5.851690
      21B2u    5.895083    21B3u    5.895083    30Ag     6.024196
      12B1g    6.024196    31Ag     6.216916    29B1u    6.324921
      30B1u    6.446154    12Au     6.446154    32Ag     6.485938
      13B1g    6.485938    20B3g    6.619336    20B2g    6.619336
      21B2g    6.736647    21B3g    6.736647    31B1u    6.799640
      33Ag     7.068072    22B2u    7.195280    22B3u    7.195280
      34Ag     7.257698    32B1u    7.517478    22B3g    8.367676
      22B2g    8.367676    33B1u    8.480575    13Au     8.480575
      23B2u    8.664720    23B3u    8.664720    24B2u    8.909575
      24B3u    8.909575    35Ag     9.166085    14B1g    9.166085
      34B1u    9.176693    36Ag     9.209813    15B1g    9.209813
      23B3g    9.420248    23B2g    9.420248    14Au     9.455935
      35B1u    9.455935    25B3u    9.922446    25B2u    9.922446
      24B2g   10.035367    24B3g   10.035367    37Ag    10.391540
      16B1g   10.391540    26B2u   10.402023    26B3u   10.402023
      38Ag    10.665841    17B1g   10.665841    36B1u   10.671061
      15Au    10.671061    27B3u   10.671364    27B2u   10.671364
      37B1u   10.692204    39Ag    10.756397    40Ag    10.787366
      38B1u   10.835326    25B2g   10.869162    25B3g   10.869162
      39B1u   11.034206    16Au    11.034206    26B2g   11.044379
      26B3g   11.044379    28B3u   11.070634    28B2u   11.070634
      41Ag    11.182446    18B1g   11.182446    29B3u   11.184170
      29B2u   11.184170    27B2g   11.370412    27B3g   11.370412
      40B1u   11.407623    17Au    11.407623    42Ag    11.464826
      41B1u   11.960568    18Au    11.960568    28B2g   12.097635
      28B3g   12.097635    29B3g   12.157249    29B2g   12.157249
      30B2u   12.184404    30B3u   12.184404    43Ag    12.467394
      19B1g   12.467394    44Ag    12.885539    20B1g   12.885539
      31B2u   13.017280    31B3u   13.017280    32B2u   13.055825
      32B3u   13.055825    42B1u   13.070507    19Au    13.070507
      30B2g   13.155169    30B3g   13.155169    43B1u   13.284396
      45Ag    13.505326    44B1u   13.660897    20Au    13.660897
      46Ag    13.923746    21B1g   13.923746    31B3g   13.944440
      31B2g   13.944440    33B2u   14.019780    33B3u   14.019780
      32B3g   14.192313    32B2g   14.192313    47Ag    14.334667
      45B1u   14.338803    48Ag    15.065709    22B1g   15.065709
      46B1u   15.239666    21Au    15.239666    47B1u   15.353829
      33B3g   15.825310    33B2g   15.825310    48B1u   16.706980
      22Au    16.706980    49B1u   17.570236    34B2u   17.577640
      34B3u   17.577640    34B3g   17.984832    34B2g   17.984832
      49Ag    18.248906    50Ag    21.474559    35B2u   22.224081
      35B3u   22.224081    51Ag    22.384220    23B1g   22.384220
      52Ag    22.500943    36B2u   22.530637    36B3u   22.530637
      53Ag    22.621228    24B1g   22.621228    54Ag    22.671729
      25B1g   22.671729    23Au    22.720695    50B1u   22.720695
      37B3u   22.766665    37B2u   22.766665    51B1u   22.880390
      35B2g   22.926968    35B3g   22.926968    38B2u   23.087057
      38B3u   23.087057    36B3g   23.358700    36B2g   23.358700
      52B1u   23.365442    24Au    23.365442    37B3g   23.935840
      37B2g   23.935840    53B1u   24.597981    54B1u   24.618879
      25Au    24.618879    38B3g   25.025258    38B2g   25.025258
      55Ag    25.278387    56Ag    26.649772    26B1g   26.649772
      39B3u   26.694012    39B2u   26.694012    39B2g   26.799116
      39B3g   26.799116    40B3u   26.827372    40B2u   26.827372
      26Au    27.009213    55B1u   27.009213    56B1u   27.176199
      40B3g   27.290558    40B2g   27.290558    57Ag    27.299877
      27B1g   27.299877    58Ag    27.326878    41B2u   27.416031
      41B3u   27.416031    57B1u   27.432579    27Au    27.432579
      41B3g   27.475232    41B2g   27.475232    58B1u   27.995829
      42B2u   28.363935    42B3u   28.363935    42B3g   28.632310
      42B2g   28.632310    59Ag    28.696242    28B1g   28.696242
      59B1u   30.572191    60B1u   30.693431    28Au    30.693431
      43B2u   30.948186    43B3u   30.948186    60Ag    31.035490
      43B3g   31.361377    43B2g   31.361377    61Ag    31.369668
      29B1g   31.369668    44B2u   31.402718    44B3u   31.402718
      61B1u   31.471869    29Au    31.471869    45B2u   31.723479
      45B3u   31.723479    44B3g   31.866155    44B2g   31.866155
      62Ag    31.878789    30B1g   31.878789    62B1u   32.308955
      30Au    32.308955    63B1u   33.431915    63Ag    33.767462
      45B3g   33.907484    45B2g   33.907484    64Ag    34.518158
      31B1g   34.518158    64B1u   35.149074    31Au    35.149074
      46B2u   36.197674    46B3u   36.197674    46B3g   36.652464
      46B2g   36.652464    65Ag    37.285688    65B1u   38.919660
      66Ag   101.942191    66B1u  106.054312

    Final Occupation by Irrep:
             Ag   B1g   B2g   B3g    Au   B1u   B2u   B3u
    DOCC [     3,    0,    0,    0,    0,    2,    1,    1 ]
    SOCC [     0,    0,    1,    1,    0,    0,    0,    0 ]

  Energy converged.

  @UHF Final Energy:  -149.68019912805653

   => Energetics <=

    Nuclear Repulsion Energy =             27.0140018998509497
    One-Electron Energy =                -259.6057085674126483
    Two-Electron Energy =                  82.9115075395051804
    Total Energy =                       -149.6801991280565289

  UHF NO Occupations:
  HONO-2 :    1B3u 1.9889470
  HONO-1 :    1B3g 1.0000000
  HONO-0 :    1B2g 1.0000000
  LUNO+0 :    2B3u 0.0110530
  LUNO+1 :    2B2u 0.0110530
  LUNO+2 :    3B1u 0.0036204
  LUNO+3 :    4 Ag 0.0013950

Properties will be evaluated at   0.000000,   0.000000,   0.000000 Bohr

Properties computed using the SCF density matrix

  Nuclear Dipole Moment: (a.u.)
     X:     0.0000      Y:     0.0000      Z:     0.0000

  Electronic Dipole Moment: (a.u.)
     X:     0.0000      Y:     0.0000      Z:     0.0000

  Dipole Moment: (a.u.)
     X:     0.0000      Y:     0.0000      Z:     0.0000     Total:     0.0000

  Dipole Moment: (Debye)
     X:     0.0000      Y:     0.0000      Z:     0.0000     Total:     0.0000

*** tstop() called on cqc05 at Wed Aug 26 11:46:13 2020
Module time:
	user time   =     500.18 seconds =       8.34 minutes
	system time =      15.78 seconds =       0.26 minutes
	total time  =        601 seconds =      10.02 minutes
Total time:
	user time   =     500.18 seconds =       8.34 minutes
	system time =      15.78 seconds =       0.26 minutes
	total time  =        601 seconds =      10.02 minutes

*** tstart() called on cqc05
*** at Wed Aug 26 11:46:13 2020

	Wfn Parameters:
	--------------------
	Wavefunction         = CCSD
	Number of irreps     = 8
	Number of MOs        = 378
	Number of active MOs = 376
	AO-Basis             = NONE
	Semicanonical        = false
	Reference            = UHF
	Print Level          = 1

	IRREP	# MOs	# FZDC	# DOCC	# SOCC	# VIRT	# FZVR
	-----	-----	------	------	------	------	------
	 Ag	   66	    1	    2	    0	    63	    0
	 B1g	   31	    0	    0	    0	    31	    0
	 B2g	   46	    0	    0	    1	    45	    0
	 B3g	   46	    0	    0	    1	    45	    0
	 Au	   31	    0	    0	    0	    31	    0
	 B1u	   66	    1	    1	    0	    64	    0
	 B2u	   46	    0	    1	    0	    45	    0
	 B3u	   46	    0	    1	    0	    45	    0
	Transforming integrals...
	IWL integrals will be deleted.
	(OO|OO)...
	Presorting SO-basis two-electron integrals.
	Sorting File: SO Ints (nn|nn) nbuckets = 1
	Transforming the one-electron integrals and constructing Fock matrices
	Starting AA/AB first half-transformation.
	Sorting AA/AB half-transformed integrals.
	Starting BB first half-transformation.
	Sorting BB half-transformed integrals.
	First half integral transformation complete.
	Starting AA second half-transformation.
	Starting AB second half-transformation.
	Starting BB second half-transformation.
	Two-electron integral transformation complete.
	(OO|OV)...
	Starting AA second half-transformation.
	Starting AB second half-transformation.
	Starting BB second half-transformation.
	Two-electron integral transformation complete.
	(OO|VV)...
	Starting AA second half-transformation.
	Starting AB second half-transformation.
	Starting BB second half-transformation.
	Two-electron integral transformation complete.
	(OV|OO)...
	Starting AA/AB first half-transformation.
	Sorting AA/AB half-transformed integrals.
	Starting BB first half-transformation.
	Sorting BB half-transformed integrals.
	First half integral transformation complete.
	Starting AA second half-transformation.
	Starting AB second half-transformation.
	Starting BB second half-transformation.
	Two-electron integral transformation complete.
	(OV|OV)...
	Starting AA second half-transformation.
	Starting AB second half-transformation.
	Starting BB second half-transformation.
	Two-electron integral transformation complete.
	(OV|VV)...
	Starting AA second half-transformation.
	Starting AB second half-transformation.
	Starting BB second half-transformation.
	Two-electron integral transformation complete.
	(VV|OO)...
	Starting AA/AB first half-transformation.
	Sorting AA/AB half-transformed integrals.
	Starting BB first half-transformation.
	Sorting BB half-transformed integrals.
	First half integral transformation complete.
	Starting AA second half-transformation.

      * MP2 total energy                      = -150.179322646837079
      * CCSD total energy                     = -150.169484107286479
*** Psi4 exiting successfully. Buy a developer a beer!
