                               Psi4 1.2a1.dev938

  ==> Input File <==

--------------------------------------------------------------------------
# Any line starting with the # character is a comment line
memory 250000 mb
molecule molecule{
0 3
O          0.0000000000        0.0000000000        0.6268479116
O          0.0000000000        0.0000000000       -0.6268479116
}

set {
  reference uhf
  basis aug-cc-pv(5+d)z
  scf_type OUT_OF_CORE
  freeze_core true
}

energy('ccsd')
--------------------------------------------------------------------------

    Molecular point group: d2h

    Geometry (in Angstrom), charge = 0, multiplicity = 3:

       Center              X                  Y                   Z               Mass
    ------------   -----------------  -----------------  -----------------  -----------------
           O          0.000000000000     0.000000000000     0.626847911600    15.994914619560
           O          0.000000000000     0.000000000000    -0.626847911600    15.994914619560

  Charge       = 0
  Multiplicity = 3
  Basis Set: AUG-CC-PV(5+D)Z
    Blend: AUG-CC-PV(5+D)Z

    Orbital Energies (a.u.)
    -----------------------

    Alpha Occupied:

       1Ag   -20.764194     1B1u  -20.763635     2Ag    -1.681773
       2B1u   -1.224735     1B3u   -0.830845     1B2u   -0.830845
       3Ag    -0.752376     1B2g   -0.577872     1B3g   -0.577872

    Alpha Virtual:

       3B1u    0.068643     4Ag     0.102520     2B3u    0.102936
       2B2u    0.102936     2B2g    0.140786     2B3g    0.140786
       5Ag     0.147041     4B1u    0.220628     6Ag     0.368868
       1B1g    0.368868     5B1u    0.375371     7Ag     0.413570
       3B3u    0.448444     3B2u    0.448444     3B2g    0.483496
       3B3g    0.483496     6B1u    0.484686     1Au     0.484686
       4B3u    0.510250     4B2u    0.510250     8Ag     0.523116
       7B1u    0.525194     4B2g    0.594324     4B3g    0.594324
       8B1u    0.612903     9Ag     0.822146     5B3u    0.909134
       5B2u    0.909134    10Ag     1.048620     2B1g    1.048620
       5B3g    1.124719     5B2g    1.124719     2Au     1.125966
       9B1u    1.125966     6B2u    1.127836     6B3u    1.127836
      10B1u    1.152073     3B1g    1.187135    11Ag     1.187135
      12Ag     1.202683     6B3g    1.246383     6B2g    1.246383
      11B1u    1.273541    13Ag     1.370480     7B2u    1.423067
       7B3u    1.423067     7B2g    1.497947     7B3g    1.497947
       8B3u    1.562942     8B2u    1.562942     3Au     1.605169
      12B1u    1.605169    13B1u    1.637594     8B2g    2.317817
       8B3g    2.317817    14Ag     2.342150    14B1u    2.374053
       4B1g    2.449463    15Ag     2.449463     9B2u    2.559075
       9B3u    2.559075    16Ag     2.669900    17Ag     2.686099
       5B1g    2.686099     4Au     2.811525    15B1u    2.811525
      10B3u    2.813470    10B2u    2.813470    11B3u    2.815224
      11B2u    2.815224    16B1u    2.854607     5Au     2.854607
      17B1u    2.877707    12B3u    2.898803    12B2u    2.898803
       9B3g    2.902751     9B2g    2.902751     6B1g    3.007068
      18Ag     3.007068    19Ag     3.035526    10B2g    3.135273
      10B3g    3.135273    20Ag     3.174152     6Au     3.290865
      18B1u    3.290865    11B2g    3.299803    11B3g    3.299803
      12B2g    3.399296    12B3g    3.399296     7B1g    3.418826
      21Ag     3.418826    19B1u    3.616413    13B3u    4.127038
      13B2u    4.127038    20B1u    4.220394    21B1u    4.374730
       7Au     4.374730    22Ag     4.423674    13B2g    4.889693
      13B3g    4.889693    22B1u    4.894206    14B3u    5.224168
      14B2u    5.224168    14B2g    5.424793    14B3g    5.424793
      23Ag     5.739873    24Ag     5.835181     8B1g    5.835181
      15B2u    5.980370    15B3u    5.980370    16B3u    6.198071
      16B2u    6.198071    15B2g    6.318523    15B3g    6.318523
      25Ag     6.466137     9B1g    6.466137    17B3u    6.566831
      17B2u    6.566831    23B1u    6.824444    26Ag     6.863851
      10B1g    6.917831    27Ag     6.917831    24B1u    6.952045
       8Au     6.952045    25B1u    6.970754     9Au     6.970754
      18B3u    7.022670    18B2u    7.022670    26B1u    7.027760
      19B3u    7.068634    19B2u    7.068634    10Au     7.142272
      27B1u    7.142272    16B3g    7.170300    16B2g    7.170300
      28Ag     7.177067    11B1g    7.177067    20B3u    7.300287
      20B2u    7.300287    17B2g    7.309098    17B3g    7.309098
      29Ag     7.340077    18B2g    7.493275    18B3g    7.493275
      19B2g    7.524176    19B3g    7.524176    28B1u    7.686028
      11Au     7.686028    30Ag     7.800904    31Ag     8.148559
      12B1g    8.148559    20B2g    8.342326    20B3g    8.342326
      29B1u    8.347564    12Au     8.347564    21B3u    8.417712
      21B2u    8.417712    32Ag     8.452932    13B1g    8.452932
      30B1u    8.753865    31B1u    8.986212    21B2g    9.294331
      21B3g    9.294331    33Ag     9.455629    22B3u   10.274439
      22B2u   10.274439    32B1u   10.445085    13Au    10.445085
      33B1u   11.295818    22B2g   11.534901    22B3g   11.534901
      34B1u   13.004760    34Ag    13.114807    23B3u   15.616340
      23B2u   15.616340    35Ag    15.836666    14B1g   15.836666
      24B3u   15.944910    24B2u   15.944910    36Ag    15.945995
      37Ag    16.043049    15B1g   16.043049    25B3u   16.058953
      25B2u   16.058953    26B3u   16.080085    26B2u   16.080085
      23B2g   16.207095    23B3g   16.207095    24B2g   16.310959
      24B3g   16.310959    35B1u   16.443219    14Au    16.443219
      38Ag    16.878992    25B2g   16.970144    25B3g   16.970144
      36B1u   17.397507    37B1u   17.526785    15Au    17.526785
      26B2g   17.824900    26B3g   17.824900    38B1u   18.197559
      27B3u   18.888962    27B2u   18.888962    39Ag    18.918257
      16B1g   18.918257    40Ag    19.028240    17B1g   19.028240
      16Au    19.038784    39B1u   19.038784    28B3u   19.062962
      28B2u   19.062962    41Ag    19.087310    27B3g   19.152176
      27B2g   19.152176    28B3g   19.293273    28B2g   19.293273
      29B2g   19.317214    29B3g   19.317214    42Ag    19.380277
      18B1g   19.380277    40B1u   19.450467    17Au    19.450467
      29B3u   19.608271    29B2u   19.608271    41B1u   19.882628
      30B3u   20.038986    30B2u   20.038986    42B1u   20.153595
      18Au    20.153595    43Ag    20.198074    19B1g   21.916083
      44Ag    21.916083    30B2g   22.060838    30B3g   22.060838
      43B1u   22.562665    19Au    22.562665    31B3u   22.671069
      31B2u   22.671069    44B1u   23.007250    31B2g   24.465143
      31B3g   24.465143    45Ag    25.014115    45B1u   25.275565
      46Ag    63.728317    46B1u   64.255903

    Beta Occupied:

       1Ag   -20.708979     1B1u  -20.707951     2Ag    -1.543501
       2B1u   -1.009679     3Ag    -0.694709     1B2u   -0.557078
       1B3u   -0.557078

    Beta Virtual:

       3B1u    0.069995     1B3g    0.072558     1B2g    0.072558
       4Ag     0.104176     2B2u    0.107110     2B3u    0.107110
       5Ag     0.145301     2B3g    0.157668     2B2g    0.157668
       4B1u    0.230128     1B1g    0.366045     6Ag     0.366045
       7Ag     0.409948     5B1u    0.415998     3B2u    0.464239
       3B3u    0.464239     1Au     0.487260     6B1u    0.487260
       3B3g    0.508391     3B2g    0.508391     4B2u    0.526264
       4B3u    0.526264     8Ag     0.531700     7B1u    0.543686
       4B3g    0.615536     4B2g    0.615536     8B1u    0.639449
       9Ag     0.822150     5B3u    0.906766     5B2u    0.906766
       2B1g    1.048260    10Ag     1.048260     5B3g    1.126549
       5B2g    1.126549     2Au     1.140746     9B1u    1.140746
       6B3u    1.141488     6B2u    1.141488    10B1u    1.164120
       3B1g    1.206976    11Ag     1.206976    12Ag     1.207476
       6B2g    1.249921     6B3g    1.249921    11B1u    1.279100
      13Ag     1.382255     7B3u    1.441466     7B2u    1.441466
       7B3g    1.558766     7B2g    1.558766     8B2u    1.635620
       8B3u    1.635620     3Au     1.639240    12B1u    1.639240
      13B1u    1.652908     8B2g    2.350161     8B3g    2.350161
      14Ag     2.357671    14B1u    2.393123     4B1g    2.449834
      15Ag     2.449834     9B2u    2.557623     9B3u    2.557623
      16Ag     2.694005     5B1g    2.694005    17Ag     2.694534
      15B1u    2.816134     4Au     2.816134    10B3u    2.830623
      10B2u    2.830623    11B2u    2.844611    11B3u    2.844611
      16B1u    2.862296     5Au     2.862296    17B1u    2.883092
      12B3u    2.909818    12B2u    2.909818     9B3g    2.921441
       9B2g    2.921441    18Ag     3.045560     6B1g    3.045560
      19Ag     3.077065    10B2g    3.144080    10B3g    3.144080
      20Ag     3.177814    11B3g    3.337188    11B2g    3.337188
      18B1u    3.378209     6Au     3.378209    12B2g    3.407690
      12B3g    3.407690    21Ag     3.465487     7B1g    3.465487
      19B1u    3.646227    13B2u    4.172438    13B3u    4.172438
      20B1u    4.234642    21B1u    4.392838     7Au     4.392838
      22Ag     4.455812    22B1u    4.925762    13B3g    4.949610
      13B2g    4.949610    14B2u    5.286423    14B3u    5.286423
      14B3g    5.480048    14B2g    5.480048    23Ag     5.769841
      24Ag     5.837719     8B1g    5.837719    15B2u    5.987925
      15B3u    5.987925    16B3u    6.200358    16B2u    6.200358
      15B2g    6.328115    15B3g    6.328115    25Ag     6.478905
       9B1g    6.478905    17B2u    6.579005    17B3u    6.579005
      23B1u    6.855763    26Ag     6.874711    10B1g    6.943794
      27Ag     6.943794    24B1u    6.960953     8Au     6.960953
      25B1u    6.984871     9Au     6.984871    18B3u    7.032858
      18B2u    7.032858    26B1u    7.041932    19B3u    7.084365
      19B2u    7.084365    10Au     7.167483    27B1u    7.167483
      16B3g    7.193827    16B2g    7.193827    28Ag     7.194337
      11B1g    7.194337    17B3g    7.332204    17B2g    7.332204
      29Ag     7.356790    20B3u    7.358827    20B2u    7.358827
      18B2g    7.531726    18B3g    7.531726    19B2g    7.542365
      19B3g    7.542365    28B1u    7.744036    11Au     7.744036
      30Ag     7.817721    31Ag     8.226410    12B1g    8.226410
      20B3g    8.354585    20B2g    8.354585    29B1u    8.398518
      12Au     8.398518    21B2u    8.465284    21B3u    8.465284
      32Ag     8.495777    13B1g    8.495777    30B1u    8.790627
      31B1u    9.001045    21B3g    9.330153    21B2g    9.330153
      33Ag     9.484180    22B2u   10.299674    22B3u   10.299674
      32B1u   10.482043    13Au    10.482043    33B1u   11.319492
      22B3g   11.570131    22B2g   11.570131    34B1u   13.039739
      34Ag    13.163841    23B2u   15.650667    23B3u   15.650667
      35Ag    15.849902    14B1g   15.849902    36Ag    15.957954
      24B2u   15.985713    24B3u   15.985713    37Ag    16.066174
      15B1g   16.066174    25B3u   16.076257    25B2u   16.076257
      26B3u   16.110417    26B2u   16.110417    23B2g   16.237339
      23B3g   16.237339    24B3g   16.369537    24B2g   16.369537
      35B1u   16.466442    14Au    16.466442    38Ag    16.902961
      25B2g   16.988780    25B3g   16.988780    36B1u   17.411185
      37B1u   17.543166    15Au    17.543166    26B3g   17.841730
      26B2g   17.841730    38B1u   18.227577    27B3u   18.932282
      27B2u   18.932282    39Ag    18.968586    16B1g   18.968586
      40Ag    19.069803    17B1g   19.069803    16Au    19.088807
      39B1u   19.088807    41Ag    19.112527    28B3u   19.123937
      28B2u   19.123937    27B3g   19.217316    27B2g   19.217316
      28B3g   19.317456    28B2g   19.317456    29B2g   19.354968
      29B3g   19.354968    42Ag    19.414411    18B1g   19.414411
      40B1u   19.486638    17Au    19.486638    29B2u   19.639702
      29B3u   19.639702    41B1u   19.905442    30B2u   20.064874
      30B3u   20.064874    42B1u   20.191446    18Au    20.191446
      43Ag    20.223150    44Ag    21.982452    19B1g   21.982452
      30B3g   22.091874    30B2g   22.091874    43B1u   22.624261
      19Au    22.624261    31B2u   22.707077    31B3u   22.707077
      44B1u   23.033768    31B3g   24.495665    31B2g   24.495665
      45Ag    25.031901    45B1u   25.290108    46Ag    63.751302
      46B1u   64.277367

    Final Occupation by Irrep:
             Ag   B1g   B2g   B3g    Au   B1u   B2u   B3u
    DOCC [     3,    0,    0,    0,    0,    2,    1,    1 ]
    SOCC [     0,    0,    1,    1,    0,    0,    0,    0 ]

  Energy converged.

  @UHF Final Energy:  -149.67993649650828

   => Energetics <=

    Nuclear Repulsion Energy =             27.0140018998509497
    One-Electron Energy =                -259.6047559484516682
    Two-Electron Energy =                  82.9108175520924533
    PCM Polarization Energy =               0.0000000000000000
    Total Energy =                       -149.6799364965082759

    Alert: EFP and PCM quantities not currently incorporated into SCF psivars.
  UHF NO Occupations:
  HONO-2 :    1B3u 1.9889461
  HONO-1 :    1B3g 1.0000000
  HONO-0 :    1B2g 1.0000000
  LUNO+0 :    2B3u 0.0110539
  LUNO+1 :    2B2u 0.0110538
  LUNO+2 :    3B1u 0.0036199
  LUNO+3 :    4 Ag 0.0013946

Properties will be evaluated at   0.000000,   0.000000,   0.000000 Bohr

Properties computed using the SCF density matrix

  Nuclear Dipole Moment: (a.u.)
     X:     0.0000      Y:     0.0000      Z:     0.0000

  Electronic Dipole Moment: (a.u.)
     X:     0.0000      Y:     0.0000      Z:     0.0000

  Dipole Moment: (a.u.)
     X:     0.0000      Y:     0.0000      Z:     0.0000     Total:     0.0000

  Dipole Moment: (Debye)
     X:     0.0000      Y:     0.0000      Z:     0.0000     Total:     0.0000

*** tstop() called on cqc05 at Fri Aug 21 04:22:33 2020
Module time:
	user time   =      68.17 seconds =       1.14 minutes
	system time =       2.63 seconds =       0.04 minutes
	total time  =         71 seconds =       1.18 minutes
Total time:
	user time   =      68.17 seconds =       1.14 minutes
	system time =       2.63 seconds =       0.04 minutes
	total time  =         71 seconds =       1.18 minutes

*** tstart() called on cqc05
*** at Fri Aug 21 04:22:33 2020

	Wfn Parameters:
	--------------------
	Wavefunction         = CCSD
	Number of irreps     = 8
	Number of MOs        = 254
	Number of active MOs = 252
	AO-Basis             = NONE
	Semicanonical        = false
	Reference            = UHF
	Print Level          = 1

	IRREP	# MOs	# FZDC	# DOCC	# SOCC	# VIRT	# FZVR
	-----	-----	------	------	------	------	------
	 Ag	   46	    1	    2	    0	    43	    0
	 B1g	   19	    0	    0	    0	    19	    0
	 B2g	   31	    0	    0	    1	    30	    0
	 B3g	   31	    0	    0	    1	    30	    0
	 Au	   19	    0	    0	    0	    19	    0
	 B1u	   46	    1	    1	    0	    44	    0
	 B2u	   31	    0	    1	    0	    30	    0
	 B3u	   31	    0	    1	    0	    30	    0
	Transforming integrals...
	IWL integrals will be deleted.
	(OO|OO)...
	Presorting SO-basis two-electron integrals.
	Sorting File: SO Ints (nn|nn) nbuckets = 1
	Transforming the one-electron integrals and constructing Fock matrices
	Starting AA/AB first half-transformation.
	Sorting AA/AB half-transformed integrals.
	Starting BB first half-transformation.
	Sorting BB half-transformed integrals.
	First half integral transformation complete.
	Starting AA second half-transformation.
	Starting AB second half-transformation.
	Starting BB second half-transformation.
	Two-electron integral transformation complete.
	(OO|OV)...
	Starting AA second half-transformation.
	Starting AB second half-transformation.
	Starting BB second half-transformation.
	Two-electron integral transformation complete.
	(OO|VV)...
	Starting AA second half-transformation.
	Starting AB second half-transformation.
	Starting BB second half-transformation.
	Two-electron integral transformation complete.
	(OV|OO)...
	Starting AA/AB first half-transformation.
	Sorting AA/AB half-transformed integrals.
	Starting BB first half-transformation.
	Sorting BB half-transformed integrals.
	First half integral transformation complete.
	Starting AA second half-transformation.
	Starting AB second half-transformation.
	Starting BB second half-transformation.
	Two-electron integral transformation complete.
	(OV|OV)...
	Starting AA second half-transformation.
	Starting AB second half-transformation.
	Starting BB second half-transformation.
	Two-electron integral transformation complete.
	(OV|VV)...
	Starting AA second half-transformation.
	Starting AB second half-transformation.
	Starting BB second half-transformation.
	Two-electron integral transformation complete.
	(VV|OO)...
	Starting AA/AB first half-transformation.
	Sorting AA/AB half-transformed integrals.
	Starting BB first half-transformation.
	Sorting BB half-transformed integrals.
	First half integral transformation complete.
	Starting AA second half-transformation.
	Starting AB second half-transformation.
	Starting BB second half-transformation.
	Two-electron integral transformation complete.
	(VV|OV)...
	Starting AA second half-transformation.
	Starting AB second half-transformation.
	Starting BB second half-transformation.
	Two-electron integral transformation complete.
	(VV|VV)...
	Starting AA second half-transformation.
	Starting AB second half-transformation.
	Starting BB second half-transformation.
	Two-electron integral transformation complete.
	Frozen core energy     =   -130.03402163921263

	Size of irrep 0 of <AB|CD> integrals:     15.453 (MW) /    123.622 (MB)
	Size of irrep 1 of <AB|CD> integrals:     11.923 (MW) /     95.386 (MB)
	Size of irrep 2 of <AB|CD> integrals:     14.062 (MW) /    112.500 (MB)
	Size of irrep 3 of <AB|CD> integrals:     14.062 (MW) /    112.500 (MB)
	Size of irrep 4 of <AB|CD> integrals:     11.923 (MW) /     95.386 (MB)
	Size of irrep 5 of <AB|CD> integrals:     16.427 (MW) /    131.414 (MB)
	Size of irrep 6 of <AB|CD> integrals:     14.062 (MW) /    112.500 (MB)
	Size of irrep 7 of <AB|CD> integrals:     14.062 (MW) /    112.500 (MB)
	Total:                                   111.976 (MW) /    895.808 (MB)

	Size of irrep 0 of <ab|cd> integrals:     15.928 (MW) /    127.425 (MB)
	Size of irrep 1 of <ab|cd> integrals:     12.348 (MW) /     98.786 (MB)
	Size of irrep 2 of <ab|cd> integrals:     14.531 (MW) /    116.251 (MB)
	Size of irrep 3 of <ab|cd> integrals:     14.531 (MW) /    116.251 (MB)
	Size of irrep 4 of <ab|cd> integrals:     12.341 (MW) /     98.729 (MB)
	Size of irrep 5 of <ab|cd> integrals:     16.917 (MW) /    135.334 (MB)
	Size of irrep 6 of <ab|cd> integrals:     14.539 (MW) /    116.312 (MB)
	Size of irrep 7 of <ab|cd> integrals:     14.539 (MW) /    116.312 (MB)
	Total:                                   115.675 (MW) /    925.399 (MB)

	Size of irrep 0 of <Ab|Cd> integrals:     66.700 (MW) /    533.599 (MB)
	Size of irrep 1 of <Ab|Cd> integrals:     48.525 (MW) /    388.201 (MB)
	Size of irrep 2 of <Ab|Cd> integrals:     57.184 (MW) /    457.471 (MB)
	Size of irrep 3 of <Ab|Cd> integrals:     57.184 (MW) /    457.471 (MB)
	Size of irrep 4 of <Ab|Cd> integrals:     48.525 (MW) /    388.201 (MB)
	Size of irrep 5 of <Ab|Cd> integrals:     66.684 (MW) /    533.468 (MB)
	Size of irrep 6 of <Ab|Cd> integrals:     57.199 (MW) /    457.592 (MB)
	Size of irrep 7 of <Ab|Cd> integrals:     57.199 (MW) /    457.592 (MB)
	Total:                                   459.199 (MW) /   3673.595 (MB)

	Size of irrep 0 of <IA|BC> integrals:      2.027 (MW) /     16.214 (MB)
	Size of irrep 1 of <IA|BC> integrals:      1.222 (MW) /      9.779 (MB)
	Size of irrep 2 of <IA|BC> integrals:      1.613 (MW) /     12.900 (MB)
	Size of irrep 3 of <IA|BC> integrals:      1.613 (MW) /     12.900 (MB)
	Size of irrep 4 of <IA|BC> integrals:      1.222 (MW) /      9.779 (MB)
	Size of irrep 5 of <IA|BC> integrals:      2.035 (MW) /     16.277 (MB)
	Size of irrep 6 of <IA|BC> integrals:      1.613 (MW) /     12.900 (MB)
	Size of irrep 7 of <IA|BC> integrals:      1.613 (MW) /     12.900 (MB)
	Total:                                    12.956 (MW) /    103.649 (MB)

	Size of irrep 0 of <ia|bc> integrals:      1.564 (MW) /     12.508 (MB)
	Size of irrep 1 of <ia|bc> integrals:      0.822 (MW) /      6.578 (MB)
	Size of irrep 2 of <ia|bc> integrals:      1.182 (MW) /      9.454 (MB)
	Size of irrep 3 of <ia|bc> integrals:      1.182 (MW) /      9.454 (MB)
	Size of irrep 4 of <ia|bc> integrals:      0.836 (MW) /      6.689 (MB)
	Size of irrep 5 of <ia|bc> integrals:      1.588 (MW) /     12.701 (MB)
	Size of irrep 6 of <ia|bc> integrals:      1.167 (MW) /      9.334 (MB)
	Size of irrep 7 of <ia|bc> integrals:      1.167 (MW) /      9.334 (MB)
	Total:                                     9.506 (MW) /     76.052 (MB)

	Size of irrep 0 of <Ia|Bc> integrals:      2.058 (MW) /     16.465 (MB)
	Size of irrep 1 of <Ia|Bc> integrals:      1.247 (MW) /      9.975 (MB)
	Size of irrep 2 of <Ia|Bc> integrals:      1.641 (MW) /     13.128 (MB)
	Size of irrep 3 of <Ia|Bc> integrals:      1.641 (MW) /     13.128 (MB)
	Size of irrep 4 of <Ia|Bc> integrals:      1.247 (MW) /      9.975 (MB)
	Size of irrep 5 of <Ia|Bc> integrals:      2.066 (MW) /     16.528 (MB)
	Size of irrep 6 of <Ia|Bc> integrals:      1.634 (MW) /     13.069 (MB)
	Size of irrep 7 of <Ia|Bc> integrals:      1.634 (MW) /     13.069 (MB)
	Total:                                    13.167 (MW) /    105.336 (MB)

	Size of irrep 0 of <iA|bC> integrals:      1.552 (MW) /     12.414 (MB)
	Size of irrep 1 of <iA|bC> integrals:      0.815 (MW) /      6.520 (MB)
	Size of irrep 2 of <iA|bC> integrals:      1.157 (MW) /      9.256 (MB)
	Size of irrep 3 of <iA|bC> integrals:      1.157 (MW) /      9.256 (MB)
	Size of irrep 4 of <iA|bC> integrals:      0.815 (MW) /      6.520 (MB)
	Size of irrep 5 of <iA|bC> integrals:      1.560 (MW) /     12.478 (MB)

      * MP2 total energy                      = -150.173650978214312
      * CCSD total energy                     = -150.165505727993946
*** Psi4 exiting successfully. Buy a developer a beer!
