                               Psi4 1.4a3.dev88

  ==> Input File <==

--------------------------------------------------------------------------
# Any line starting with the # character is a comment line
memory 250000 mb
molecule molecule{
0 1
C          0.0000000000        0.0000000000       -1.1198483656
S          0.0000000000        0.0000000000        0.4195414448
}

set {
  reference rhf
  basis aug-cc-pV(5+d)Z
  scf_type OUT_OF_CORE
  freeze_core true
}

energy('ccsd(t)')
--------------------------------------------------------------------------

    Molecular point group: c2v

    Geometry (in Angstrom), charge = 0, multiplicity = 1:

       Center              X                  Y                   Z               Mass
    ------------   -----------------  -----------------  -----------------  -----------------
         C            0.000000000000     0.000000000000    -1.119289568782    12.000000000000
         S            0.000000000000     0.000000000000     0.420100241618    31.972071174400

  Charge       = 0
  Multiplicity = 1
  Basis Set: AUG-CC-PV(5+D)Z
    Blend: AUG-CC-PV(5+D)Z

    Orbital Energies [Eh]
    ---------------------

    Doubly Occupied:

       1A1   -92.001300     2A1   -11.355786     3A1    -9.007164
       4A1    -6.687328     1B2    -6.686674     1B1    -6.686674
       5A1    -1.098599     6A1    -0.692971     7A1    -0.470910
       2B2    -0.462128     2B1    -0.462128

  @RHF Final Energy:  -435.36181663407342

   => Energetics <=

    Nuclear Repulsion Energy =             33.0007460625711957
    One-Electron Energy =                -665.5018026950361900
    Two-Electron Energy =                 197.1392399983915595
    Total Energy =                       -435.3618166340734206

  Dipole Moment: [D]
     X:     0.0000      Y:     0.0000      Z:     1.6071     Total:     1.6071

      * MP2 total energy                      = -435.698552377941155
      * CCSD total energy                     = -435.706824457815003
      * CCSD(T) total energy                  = -435.731024339665169
*** Psi4 exiting successfully. Buy a developer a beer!
