                               Psi4 1.4a3.dev88

  ==> Input File <==

--------------------------------------------------------------------------
# Any line starting with the # character is a comment line
memory 250000 mb
molecule molecule{
0 1
C          0.0000000000        0.0000000000       -1.1198483656
S          0.0000000000        0.0000000000        0.4195414448
}

set {
  reference rhf
  basis aug-cc-pV(6+d)Z
  scf_type OUT_OF_CORE
  freeze_core true
}

energy('ccsd(t)')
--------------------------------------------------------------------------

    Molecular point group: c2v

    Geometry (in Angstrom), charge = 0, multiplicity = 1:

       Center              X                  Y                   Z               Mass
    ------------   -----------------  -----------------  -----------------  -----------------
         C            0.000000000000     0.000000000000    -1.119289568782    12.000000000000
         S            0.000000000000     0.000000000000     0.420100241618    31.972071174400

  Charge       = 0
  Multiplicity = 1
  Basis Set: AUG-CC-PV(6+D)Z
    Blend: AUG-CC-PV(6+D)Z

    Orbital Energies [Eh]
    ---------------------

    Doubly Occupied:

       1A1   -92.001401     2A1   -11.355724     3A1    -9.007124
       4A1    -6.687335     1B2    -6.686664     1B1    -6.686664
       5A1    -1.098557     6A1    -0.692969     7A1    -0.470905
       2B1    -0.462112     2B2    -0.462112

  @RHF Final Energy:  -435.36205898325591

   => Energetics <=

    Nuclear Repulsion Energy =             33.0007460625711957
    One-Electron Energy =                -665.5024761830972011
    Two-Electron Energy =                 197.1396711372700850
    Total Energy =                       -435.3620589832559062

  Dipole Moment: [D]
     X:     0.0000      Y:     0.0000      Z:     1.6083     Total:     1.6083

      * MP2 total energy                      = -435.702840377892187
      * CCSD total energy                     = -435.709335908542528
      * CCSD(T) total energy                  = -435.733750256465783
*** Psi4 exiting successfully. Buy a developer a beer!
