                               Psi4 1.4a3.dev88

  ==> Input File <==

--------------------------------------------------------------------------
# Any line starting with the # character is a comment line
memory 250000 mb
molecule molecule{
0 1
C          0.0000000000        0.0000000000       -1.1198483656
S          0.0000000000        0.0000000000        0.4195414448
}

set {
  reference rhf
  basis aug-cc-pV(d+d)Z
  scf_type OUT_OF_CORE
  freeze_core true
}

energy('ccsd(t)')
--------------------------------------------------------------------------

    Molecular point group: c2v

    Geometry (in Angstrom), charge = 0, multiplicity = 1:

       Center              X                  Y                   Z               Mass
    ------------   -----------------  -----------------  -----------------  -----------------
         C            0.000000000000     0.000000000000    -1.119289568782    12.000000000000
         S            0.000000000000     0.000000000000     0.420100241618    31.972071174400

  Charge       = 0
  Multiplicity = 1
  Basis Set: AUG-CC-PV(D+D)Z
    Blend: AUG-CC-PV(D+D)Z

    Orbital Energies [Eh]
    ---------------------

    Doubly Occupied:

       1A1   -92.004388     2A1   -11.364491     3A1    -9.011413
       4A1    -6.692271     1B2    -6.690272     1B1    -6.690272
       5A1    -1.104365     6A1    -0.695433     7A1    -0.472000
       2B1    -0.463308     2B2    -0.463308

  @RHF Final Energy:  -435.33861821318089

   => Energetics <=

    Nuclear Repulsion Energy =             33.0007460625711957
    One-Electron Energy =                -665.3756868939715332
    Two-Electron Energy =                 197.0363226182194580
    Total Energy =                       -435.3386182131808368

  Dipole Moment: [D]
     X:     0.0000      Y:     0.0000      Z:     1.5999     Total:     1.5999

      * MP2 total energy                      = -435.594265934834823
      * CCSD total energy                     = -435.612205852149657
      * CCSD(T) total energy                  = -435.628786658522586
*** Psi4 exiting successfully. Buy a developer a beer!
