                               Psi4 1.4a3.dev88

  ==> Input File <==

--------------------------------------------------------------------------
# Any line starting with the # character is a comment line
memory 250000 mb
molecule molecule{
0 1
C          0.0000000000        0.0000000000       -1.1198483656
S          0.0000000000        0.0000000000        0.4195414448
}

set {
  reference rhf
  basis aug-cc-pV(t+d)Z
  scf_type OUT_OF_CORE
  freeze_core true
}

energy('ccsd(t)')
--------------------------------------------------------------------------

    Molecular point group: c2v

    Geometry (in Angstrom), charge = 0, multiplicity = 1:

       Center              X                  Y                   Z               Mass
    ------------   -----------------  -----------------  -----------------  -----------------
         C            0.000000000000     0.000000000000    -1.119289568782    12.000000000000
         S            0.000000000000     0.000000000000     0.420100241618    31.972071174400

  Charge       = 0
  Multiplicity = 1
  Basis Set: AUG-CC-PV(T+D)Z
    Blend: AUG-CC-PV(T+D)Z

    Orbital Energies [Eh]
    ---------------------

    Doubly Occupied:

       1A1   -92.001535     2A1   -11.357704     3A1    -9.007772
       4A1    -6.687789     1B1    -6.686866     1B2    -6.686866
       5A1    -1.099480     6A1    -0.693423     7A1    -0.471066
       2B1    -0.462303     2B2    -0.462303

  @RHF Final Energy:  -435.35579442325286

   => Energetics <=

    Nuclear Repulsion Energy =             33.0007460625711957
    One-Electron Energy =                -665.4788683300866978
    Two-Electron Energy =                 197.1223278442625997
    Total Energy =                       -435.3557944232528598

  Dipole Moment: [D]
     X:     0.0000      Y:     0.0000      Z:     1.6037     Total:     1.6037

      * MP2 total energy                      = -435.663874963258706
      * CCSD total energy                     = -435.679414111456992
      * CCSD(T) total energy                  = -435.701575339692852
*** Psi4 exiting successfully. Buy a developer a beer!
