                               Psi4 1.4a3.dev88

  ==> Input File <==

--------------------------------------------------------------------------
# Any line starting with the # character is a comment line
memory 250000 mb
molecule molecule{
0 1
C          0.0000000000        0.0000000000        0.6060788671
H          0.0000000000        0.0000000000        1.6678001967
C          0.0000000000        0.0000000000       -0.6060788671
H          0.0000000000        0.0000000000       -1.6678001967
}

set {
  reference rhf
  basis aug-cc-pV(6+d)Z
  scf_type OUT_OF_CORE
  freeze_core true
}

energy('ccsd(t)')
--------------------------------------------------------------------------

    Molecular point group: d2h

    Geometry (in Angstrom), charge = 0, multiplicity = 1:

       Center              X                  Y                   Z               Mass
    ------------   -----------------  -----------------  -----------------  -----------------
         C            0.000000000000     0.000000000000     0.606078867100    12.000000000000
         H            0.000000000000     0.000000000000     1.667800196700     1.007825032230
         C            0.000000000000     0.000000000000    -0.606078867100    12.000000000000
         H            0.000000000000     0.000000000000    -1.667800196700     1.007825032230

  Charge       = 0
  Multiplicity = 1
  Basis Set: AUG-CC-PV(6+D)Z
    Blend: AUG-CC-PV(6+D)Z

    Orbital Energies [Eh]
    ---------------------

    Doubly Occupied:

       1Ag   -11.245494     1B1u  -11.241882     2Ag    -1.027763
       2B1u   -0.769522     3Ag    -0.681735     1B3u   -0.409142
       1B2u   -0.409142

  @RHF Final Energy:   -76.85456549183777

   => Energetics <=

    Nuclear Repulsion Energy =             24.6483482077768663
    One-Electron Energy =                -151.4364581865840194
    Two-Electron Energy =                  49.9335444869693958
    Total Energy =                        -76.8545654918377608

  Dipole Moment: [D]
     X:     0.0000      Y:     0.0000      Z:    -0.0000     Total:     0.0000

      * MP2 total energy                      =  -77.196304210243454
      * CCSD total energy                     =  -77.199763020000262
      * CCSD(T) total energy                  =  -77.218329978724867
*** Psi4 exiting successfully. Buy a developer a beer!
