                               Psi4 1.2a1.dev938

  ==> Input File <==

--------------------------------------------------------------------------
# Any line starting with the # character is a comment line
memory 250000 mb
molecule molecule{
0 3
C          0.0000000000        0.0000000000        0.0000000000
}

set {
  reference uhf
  basis aug-cc-pv(t+d)z
  scf_type OUT_OF_CORE
  freeze_core true
}

energy('ccsd')
--------------------------------------------------------------------------

    Molecular point group: d2h
    Geometry (in Angstrom), charge = 0, multiplicity = 3:

       Center              X                  Y                   Z               Mass
    ------------   -----------------  -----------------  -----------------  -----------------
           C          0.000000000000     0.000000000000     0.000000000000    12.000000000000

  Charge       = 0
  Multiplicity = 3
  Basis Set: AUG-CC-PV(T+D)Z
    Blend: AUG-CC-PV(T+D)Z

    Orbital Energies (a.u.)
    -----------------------

    Alpha Occupied:

       1Ag   -11.346539     2Ag    -0.829582     1B1u   -0.438817
       1B3u   -0.438817

    Alpha Virtual:

       1B2u    0.017512     3Ag     0.094463     2B1u    0.096378
       2B3u    0.096378     2B2u    0.123971     1B3g    0.304175
       1B1g    0.304175     4Ag     0.304432     1B2g    0.304477
       5Ag     0.304477     3B1u    0.529658     3B3u    0.529658
       3B2u    0.582866     6Ag     0.725307     2B2g    1.018378
       7Ag     1.018378     2B1g    1.033369     2B3g    1.033369
       8Ag     1.039633     4B2u    1.080646     4B3u    1.082153
       4B1u    1.082153     5B2u    1.086712     1Au     1.086712
       5B1u    1.094301     5B3u    1.094301     6B3u    2.336498
       6B1u    2.336498     6B2u    2.372212     3B2g    3.376553
       9Ag     3.376553     3B3g    3.382754     3B1g    3.382754
      10Ag     3.385175     7B2u    3.432443     7B3u    3.434883
       7B1u    3.434883     2Au     3.442179     8B2u    3.442179
       8B3u    3.454248     8B1u    3.454248    11Ag     4.626609

    Beta Occupied:

       1Ag   -11.301537     2Ag    -0.584136

    Beta Virtual:

       1B2u    0.037674     1B1u    0.062958     1B3u    0.062958
       3Ag     0.106339     2B2u    0.141405     2B1u    0.180146
       2B3u    0.180146     4Ag     0.311914     1B3g    0.315277
       1B1g    0.315277     5Ag     0.326213     1B2g    0.326213
       3B2u    0.606592     3B1u    0.650609     3B3u    0.650609
       6Ag     0.783974     7Ag     1.080645     2B1g    1.091190
       2B3g    1.091190     4B2u    1.093493     4B3u    1.096888
       4B1u    1.096888     5B2u    1.107179     1Au     1.107179
       5B1u    1.124862     5B3u    1.124862     2B2g    1.126683
       8Ag     1.126683     6B2u    2.397666     6B1u    2.452795
       6B3u    2.452795     9Ag     3.441847     3B3g    3.457996
       3B1g    3.457996     7B2u    3.468481     7B3u    3.475570
       7B1u    3.475570     2Au     3.497065     8B2u    3.497065
       3B2g    3.509166    10Ag     3.509166     8B3u    3.533846
       8B1u    3.533846    11Ag     4.683402

    Final Occupation by Irrep:
             Ag   B1g   B2g   B3g    Au   B1u   B2u   B3u
    DOCC [     2,    0,    0,    0,    0,    0,    0,    0 ]
    SOCC [     0,    0,    0,    0,    0,    1,    0,    1 ]

  Energy converged.

  @UHF Final Energy:   -37.69181131152412

   => Energetics <=

    Nuclear Repulsion Energy =              0.0000000000000000
    One-Electron Energy =                 -50.4441935090321749
    Two-Electron Energy =                  12.7523821975080587
    Total Energy =                        -37.6918113115241198

  UHF NO Occupations:
  HONO-2 :    2 Ag 1.9948724
  HONO-1 :    1B1u 1.0000000
  HONO-0 :    1B3u 1.0000000
  LUNO+0 :    3 Ag 0.0051276
  LUNO+1 :    4 Ag 0.0000032
  LUNO+2 :    5 Ag 0.0000000
  LUNO+3 :    2B1u 0.0000000

Properties will be evaluated at   0.000000,   0.000000,   0.000000 Bohr

Properties computed using the SCF density matrix

  Nuclear Dipole Moment: (a.u.)
     X:     0.0000      Y:     0.0000      Z:     0.0000

  Electronic Dipole Moment: (a.u.)
     X:     0.0000      Y:     0.0000      Z:     0.0000

  Dipole Moment: (a.u.)
     X:     0.0000      Y:     0.0000      Z:     0.0000     Total:     0.0000

  Dipole Moment: (Debye)
     X:     0.0000      Y:     0.0000      Z:     0.0000     Total:     0.0000

*** tstop() called on cqc05 at Thu Aug 20 20:11:05 2020
Module time:
	user time   =       0.37 seconds =       0.01 minutes
	system time =       0.03 seconds =       0.00 minutes
	total time  =          0 seconds =       0.00 minutes
Total time:
	user time   =       0.37 seconds =       0.01 minutes
	system time =       0.03 seconds =       0.00 minutes
	total time  =          0 seconds =       0.00 minutes

*** tstart() called on cqc05
*** at Thu Aug 20 20:11:05 2020

	Wfn Parameters:
	--------------------
	Wavefunction         = CCSD
	Number of irreps     = 8
	Number of MOs        = 46
	Number of active MOs = 45
	AO-Basis             = NONE
	Semicanonical        = false
	Reference            = UHF
	Print Level          = 1

	IRREP	# MOs	# FZDC	# DOCC	# SOCC	# VIRT	# FZVR
	-----	-----	------	------	------	------	------
	 Ag	   11	    1	    1	    0	    9	    0
	 B1g	   3	    0	    0	    0	    3	    0
	 B2g	   3	    0	    0	    0	    3	    0
	 B3g	   3	    0	    0	    0	    3	    0
	 Au	   2	    0	    0	    0	    2	    0
	 B1u	   8	    0	    0	    1	    7	    0
	 B2u	   8	    0	    0	    0	    8	    0
	 B3u	   8	    0	    0	    1	    7	    0
	Transforming integrals...
	IWL integrals will be deleted.
	(OO|OO)...
	Presorting SO-basis two-electron integrals.
	Sorting File: SO Ints (nn|nn) nbuckets = 1
	Transforming the one-electron integrals and constructing Fock matrices
	Starting AA/AB first half-transformation.
	Sorting AA/AB half-transformed integrals.
	Starting BB first half-transformation.
	Sorting BB half-transformed integrals.
	First half integral transformation complete.
	Starting AA second half-transformation.
	Starting AB second half-transformation.
	Starting BB second half-transformation.
	Two-electron integral transformation complete.
	(OO|OV)...
	Starting AA second half-transformation.
	Starting AB second half-transformation.
	Starting BB second half-transformation.
	Two-electron integral transformation complete.
	(OO|VV)...
	Starting AA second half-transformation.
	Starting AB second half-transformation.
	Starting BB second half-transformation.
	Two-electron integral transformation complete.
	(OV|OO)...
	Starting AA/AB first half-transformation.
	Sorting AA/AB half-transformed integrals.
	Starting BB first half-transformation.
	Sorting BB half-transformed integrals.
	First half integral transformation complete.
	Starting AA second half-transformation.
	Starting AB second half-transformation.
	Starting BB second half-transformation.
	Two-electron integral transformation complete.
	(OV|OV)...
	Starting AA second half-transformation.
	Starting AB second half-transformation.
	Starting BB second half-transformation.
	Two-electron integral transformation complete.
	(OV|VV)...
	Starting AA second half-transformation.
	Starting AB second half-transformation.
	Starting BB second half-transformation.
	Two-electron integral transformation complete.
	(VV|OO)...
	Starting AA/AB first half-transformation.
	Sorting AA/AB half-transformed integrals.
	Starting BB first half-transformation.
	Sorting BB half-transformed integrals.
	First half integral transformation complete.
	Starting AA second half-transformation.
	Starting AB second half-transformation.
	Starting BB second half-transformation.
	Two-electron integral transformation complete.
	(VV|OV)...
	Starting AA second half-transformation.
	Starting AB second half-transformation.
	Starting BB second half-transformation.
	Two-electron integral transformation complete.
	(VV|VV)...
	Starting AA second half-transformation.
	Starting AB second half-transformation.
	Starting BB second half-transformation.
	Two-electron integral transformation complete.
	Frozen core energy     =    -32.35917217861693

	Size of irrep 0 of <AB|CD> integrals:      0.013 (MW) /      0.108 (MB)
	Size of irrep 1 of <AB|CD> integrals:      0.011 (MW) /      0.090 (MB)
	Size of irrep 2 of <AB|CD> integrals:      0.010 (MW) /      0.082 (MB)
	Size of irrep 3 of <AB|CD> integrals:      0.011 (MW) /      0.090 (MB)
	Size of irrep 4 of <AB|CD> integrals:      0.007 (MW) /      0.056 (MB)
	Size of irrep 5 of <AB|CD> integrals:      0.013 (MW) /      0.104 (MB)
	Size of irrep 6 of <AB|CD> integrals:      0.014 (MW) /      0.115 (MB)
	Size of irrep 7 of <AB|CD> integrals:      0.013 (MW) /      0.104 (MB)
	Total:                                     0.094 (MW) /      0.749 (MB)

	Size of irrep 0 of <ab|cd> integrals:      0.017 (MW) /      0.135 (MB)
	Size of irrep 1 of <ab|cd> integrals:      0.013 (MW) /      0.108 (MB)
	Size of irrep 2 of <ab|cd> integrals:      0.013 (MW) /      0.108 (MB)
	Size of irrep 3 of <ab|cd> integrals:      0.013 (MW) /      0.108 (MB)
	Size of irrep 4 of <ab|cd> integrals:      0.008 (MW) /      0.065 (MB)
	Size of irrep 5 of <ab|cd> integrals:      0.016 (MW) /      0.127 (MB)
	Size of irrep 6 of <ab|cd> integrals:      0.016 (MW) /      0.127 (MB)
	Size of irrep 7 of <ab|cd> integrals:      0.016 (MW) /      0.127 (MB)
	Total:                                     0.113 (MW) /      0.904 (MB)

	Size of irrep 0 of <Ab|Cd> integrals:      0.083 (MW) /      0.664 (MB)
	Size of irrep 1 of <Ab|Cd> integrals:      0.049 (MW) /      0.394 (MB)
	Size of irrep 2 of <Ab|Cd> integrals:      0.047 (MW) /      0.373 (MB)
	Size of irrep 3 of <Ab|Cd> integrals:      0.049 (MW) /      0.394 (MB)
	Size of irrep 4 of <Ab|Cd> integrals:      0.030 (MW) /      0.242 (MB)
	Size of irrep 5 of <Ab|Cd> integrals:      0.058 (MW) /      0.461 (MB)
	Size of irrep 6 of <Ab|Cd> integrals:      0.061 (MW) /      0.484 (MB)
	Size of irrep 7 of <Ab|Cd> integrals:      0.058 (MW) /      0.461 (MB)
	Total:                                     0.434 (MW) /      3.473 (MB)

	Size of irrep 0 of <IA|BC> integrals:      0.006 (MW) /      0.050 (MB)
	Size of irrep 1 of <IA|BC> integrals:      0.003 (MW) /      0.022 (MB)
	Size of irrep 2 of <IA|BC> integrals:      0.003 (MW) /      0.027 (MB)
	Size of irrep 3 of <IA|BC> integrals:      0.003 (MW) /      0.022 (MB)
	Size of irrep 4 of <IA|BC> integrals:      0.001 (MW) /      0.011 (MB)
	Size of irrep 5 of <IA|BC> integrals:      0.004 (MW) /      0.035 (MB)
	Size of irrep 6 of <IA|BC> integrals:      0.003 (MW) /      0.027 (MB)
	Size of irrep 7 of <IA|BC> integrals:      0.004 (MW) /      0.035 (MB)
	Total:                                     0.029 (MW) /      0.229 (MB)

	Size of irrep 0 of <ia|bc> integrals:      0.003 (MW) /      0.022 (MB)
	Size of irrep 1 of <ia|bc> integrals:      0.001 (MW) /      0.006 (MB)
	Size of irrep 2 of <ia|bc> integrals:      0.001 (MW) /      0.006 (MB)
	Size of irrep 3 of <ia|bc> integrals:      0.001 (MW) /      0.006 (MB)
	Size of irrep 4 of <ia|bc> integrals:      0.000 (MW) /      0.003 (MB)
	Size of irrep 5 of <ia|bc> integrals:      0.002 (MW) /      0.016 (MB)
	Size of irrep 6 of <ia|bc> integrals:      0.002 (MW) /      0.016 (MB)
	Size of irrep 7 of <ia|bc> integrals:      0.002 (MW) /      0.016 (MB)
	Total:                                     0.011 (MW) /      0.090 (MB)

	Size of irrep 0 of <Ia|Bc> integrals:      0.007 (MW) /      0.058 (MB)
	Size of irrep 1 of <Ia|Bc> integrals:      0.003 (MW) /      0.023 (MB)
	Size of irrep 2 of <Ia|Bc> integrals:      0.004 (MW) /      0.033 (MB)
	Size of irrep 3 of <Ia|Bc> integrals:      0.003 (MW) /      0.023 (MB)
	Size of irrep 4 of <Ia|Bc> integrals:      0.001 (MW) /      0.011 (MB)
	Size of irrep 5 of <Ia|Bc> integrals:      0.005 (MW) /      0.038 (MB)
	Size of irrep 6 of <Ia|Bc> integrals:      0.003 (MW) /      0.028 (MB)
	Size of irrep 7 of <Ia|Bc> integrals:      0.005 (MW) /      0.038 (MB)
	Total:                                     0.032 (MW) /      0.252 (MB)

	Size of irrep 0 of <iA|bC> integrals:      0.003 (MW) /      0.021 (MB)
	Size of irrep 1 of <iA|bC> integrals:      0.001 (MW) /      0.005 (MB)
	Size of irrep 2 of <iA|bC> integrals:      0.001 (MW) /      0.005 (MB)
	Size of irrep 3 of <iA|bC> integrals:      0.001 (MW) /      0.005 (MB)
	Size of irrep 4 of <iA|bC> integrals:      0.000 (MW) /      0.003 (MB)
	Size of irrep 5 of <iA|bC> integrals:      0.002 (MW) /      0.013 (MB)
	Size of irrep 6 of <iA|bC> integrals:      0.002 (MW) /      0.016 (MB)
	Size of irrep 7 of <iA|bC> integrals:      0.002 (MW) /      0.013 (MB)
	Total:                                     0.010 (MW) /      0.082 (MB)

	Size of irrep 0 of tIjAb amplitudes:       0.000 (MW) /      0.002 (MB)
	Size of irrep 1 of tIjAb amplitudes:       0.000 (MW) /      0.000 (MB)
	Size of irrep 2 of tIjAb amplitudes:       0.000 (MW) /      0.000 (MB)
	Size of irrep 3 of tIjAb amplitudes:       0.000 (MW) /      0.000 (MB)
	Size of irrep 4 of tIjAb amplitudes:       0.000 (MW) /      0.000 (MB)
	Size of irrep 5 of tIjAb amplitudes:       0.000 (MW) /      0.002 (MB)
	Size of irrep 6 of tIjAb amplitudes:       0.000 (MW) /      0.000 (MB)
	Size of irrep 7 of tIjAb amplitudes:       0.000 (MW) /      0.002 (MB)
	Total:                                     0.001 (MW) /      0.006 (MB)

	Nuclear Rep. energy          =      0.00000000000000
	SCF energy                   =    -37.69181131152412
	One-electron energy          =     -8.37392505823162
	Two-electron (AA) energy     =      1.38040244395534
	Two-electron (BB) energy     =      0.00000000000000
	Two-electron (AB) energy     =      1.66088348136904
	Two-electron energy          =      3.04128592532437
	Reference energy             =    -37.69181131152418

*** tstop() called on cqc05 at Thu Aug 20 20:11:05 2020
Module time:
	user time   =       0.09 seconds =       0.00 minutes
	system time =       0.04 seconds =       0.00 minutes
	total time  =          0 seconds =       0.00 minutes
Total time:
	user time   =       0.46 seconds =       0.01 minutes
	system time =       0.07 seconds =       0.00 minutes
	total time  =          0 seconds =       0.00 minutes

*** tstart() called on cqc05
*** at Thu Aug 20 20:11:05 2020

            **************************
            *                        *
            *        CCENERGY        *
            *                        *
            **************************

    Nuclear Rep. energy (wfn)     =    0.000000000000000
    SCF energy          (wfn)     =  -37.691811311524120
    Reference energy    (file100) =  -37.691811311524177

    Input parameters:
    -----------------
    Wave function   =     CCSD
    Reference wfn   =     UHF
    Brueckner       =     No
    Memory (Mbytes) =     250000.0
    Maxiter         =     50
    R_Convergence   =     1.0e-07
    E_Convergence   =     1.0e-06
    Restart         =     Yes
    DIIS            =     Yes
    AO Basis        =     NONE
    ABCD            =     NEW
    Cache Level     =     2
    Cache Type      =     LRU
    Print Level     =     1
    Num. of threads =     4
    # Amps to Print =     10
    Print MP2 Amps? =     No
    Analyze T2 Amps =     No
    Print Pair Ener =     No
    Local CC        =     No
    SCS-MP2         =     False
    SCSN-MP2        =     False
    SCS-CCSD        =     False

MP2 correlation energy -0.0677493540926250
                Solving CC Amplitude Equations
                ------------------------------
  Iter             Energy              RMS        T1Diag      D1Diag    New D1Diag    D2Diag
  ----     ---------------------    ---------   ----------  ----------  ----------   --------
     0        -0.067749354092625    0.000e+00    0.000000    0.000000    0.000000    0.000000
     1        -0.080966807036712    4.624e-02    0.006028    0.000000    0.000000    0.000000
     2        -0.087272989873626    2.077e-02    0.011529    0.000000    0.000000    0.000000
     3        -0.087813726314031    5.282e-03    0.013413    0.000000    0.000000    0.000000
     4        -0.087848492811886    9.216e-04    0.013558    0.000000    0.000000    0.000000
     5        -0.087836552176275    2.037e-04    0.013516    0.000000    0.000000    0.000000
     6        -0.087841895750901    5.581e-05    0.013506    0.000000    0.000000    0.000000
     7        -0.087841914417932    1.572e-05    0.013503    0.000000    0.000000    0.000000
     8        -0.087841510698469    4.684e-06    0.013503    0.000000    0.000000    0.000000
     9        -0.087841664515926    1.487e-06    0.013503    0.000000    0.000000    0.000000
    10        -0.087841665603595    4.051e-07    0.013503    0.000000    0.000000    0.000000
    11        -0.087841654283184    1.202e-07    0.013503    0.000000    0.000000    0.000000
    12        -0.087841654347289    2.366e-08    0.013503    0.000000    0.000000    0.000000
    12        -0.087841654347289    2.366e-08    0.013503    0.000000    0.000000    0.000000

    Iterations converged.

    CCSD corr. energy   =   -0.087841654347289
    PPL corr. energy    =    0.026771256297706
    OS PPL corr. energy =    0.024179410385790
    SS PPL corr. energy =    0.002591845911915
    Largest TIA Amplitudes:
              0   5         0.0130051716
              0   1        -0.0098637142
              1  20        -0.0070281987
              2  35        -0.0070281987
              0   7         0.0040195856
              1  21        -0.0037404276
              2  36        -0.0037404276
              0   0         0.0029875001
              1  22         0.0018081408
              2  37         0.0018081408

    Largest Tia Amplitudes:
              0   3        -0.0121368137
              0   0         0.0119892642
              0   8         0.0019936597
              0   4        -0.0011127683
              0   6         0.0007194928
              0   1        -0.0005137038

    Largest TIJAB Amplitudes:
      2   1  36  21        -0.0366305834
      2   1  13   4        -0.0254094549
      1   0  21   3        -0.0200855539
      2   0  36   3        -0.0200855539
      2   1  35  21        -0.0189214807
      2   1  36  20        -0.0189214807
      2   1  36  24        -0.0157613352
      2   1  39  21        -0.0157613352
      2   1  12   4         0.0144422496
      2   1  13   2         0.0144422496

    Largest TIjAb Amplitudes:
      0   0  27  28         0.0998565183
      0   0  27  29         0.0955649718
      0   0  28  28         0.0676753340
      0   0  28  29         0.0655997571
      0   0  27  30         0.0546320599
      0   0  29  29         0.0432114751
      0   0  29  28         0.0425655198
      0   0  28  30         0.0392986432

      * MP2 total energy                      =  -37.759560665616803
      * CCSD total energy                     =  -37.779652965871463
*** Psi4 exiting successfully. Buy a developer a beer!
