                               Psi4 1.2a1.dev938

  ==> Input File <==

--------------------------------------------------------------------------
# Any line starting with the # character is a comment line
memory 250000 mb
molecule molecule{
0 3
C          0.0000000000        0.0000000000        0.0000000000
}

set {
  reference uhf
  basis aug-cc-pv(q+d)z
  scf_type OUT_OF_CORE
  freeze_core true
}

energy('ccsd')
--------------------------------------------------------------------------

    Molecular point group: d2h
    Geometry (in Angstrom), charge = 0, multiplicity = 3:

       Center              X                  Y                   Z               Mass
    ------------   -----------------  -----------------  -----------------  -----------------
           C          0.000000000000     0.000000000000     0.000000000000    12.000000000000

  Charge       = 0
  Multiplicity = 3
  Basis Set: AUG-CC-PV(Q+D)Z
    Blend: AUG-CC-PV(Q+D)Z

    Orbital Energies (a.u.)
    -----------------------

    Alpha Occupied:

       1Ag   -11.345965     2Ag    -0.829337     1B3u   -0.439026
       1B2u   -0.439026

    Alpha Virtual:

       1B1u    0.017089     3Ag     0.081497     2B3u    0.083418
       2B2u    0.083418     2B1u    0.107166     4Ag     0.235473
       1B3g    0.235820     1B2g    0.235820     1B1g    0.237573
       5Ag     0.237573     3B2u    0.418824     3B3u    0.418824
       3B1u    0.464652     6Ag     0.493002     4B1u    0.755537
       4B3u    0.756755     4B2u    0.756755     1Au     0.760515
       5B1u    0.760515     2B1g    0.760983     7Ag     0.760983
       5B3u    0.766882     5B2u    0.766882     2B3g    0.771319
       2B2g    0.771319     8Ag     0.775813     6B2u    1.563646
       6B3u    1.563646     6B1u    1.598321     9Ag     2.095817
      10Ag     2.116569     3B2g    2.118135     3B3g    2.118135
      11Ag     2.122870     3B1g    2.122870     4B2g    2.130820
       4B3g    2.130820    12Ag     2.141946     4B1g    2.141946
       5B1g    2.188840    13Ag     2.188840     5B3g    2.197948
       5B2g    2.197948    14Ag     2.202568     7B1u    2.267365
       7B3u    2.269406     7B2u    2.269406     8B1u    2.275559
       2Au     2.275559     8B3u    2.285830     8B2u    2.285830
       9B2u    5.784910     9B3u    5.784910     9B1u    5.788120
      15Ag     5.921391     6B2g    5.924023     6B3g    5.924023
       6B1g    5.931935    16Ag     5.931935     7B2g    5.945168
       7B3g    5.945168    17Ag     5.963781     7B1g    5.963781
      18Ag     6.353917     8B3g    6.356900     8B2g    6.356900
       8B1g    6.366197    19Ag     6.366197    10B1u    6.457604
      10B3u    6.461023    10B2u    6.461023    11B1u    6.471330
       3Au     6.471330    11B3u    6.488681    11B2u    6.488681
      20Ag    20.444657

    Beta Occupied:

       1Ag   -11.300622     2Ag    -0.583572

    Beta Virtual:

       1B1u    0.036010     1B2u    0.058282     1B3u    0.058282
       3Ag     0.090457     2B1u    0.123549     2B2u    0.160967
       2B3u    0.160967     4Ag     0.239410     1B2g    0.241681
       1B3g    0.241681     1B1g    0.249083     5Ag     0.249083
       3B1u    0.484661     3B2u    0.522982     3B3u    0.522982
       6Ag     0.531942     4B1u    0.762011     4B2u    0.764204
       4B3u    0.764204     1Au     0.770865     5B1u    0.770865
       5B3u    0.782393     5B2u    0.782393     7Ag     0.804071
       2B3g    0.812131     2B2g    0.812131     2B1g    0.839144
       8Ag     0.839144     6B1u    1.622612     6B2u    1.676046
       6B3u    1.676046     9Ag     2.127364     3B2g    2.129777
       3B3g    2.129777    10Ag     2.137032     3B1g    2.137032
       4B2g    2.149226     4B3g    2.149226    11Ag     2.162370
      12Ag     2.166576     4B1g    2.166576    13Ag     2.253021
       5B3g    2.267195     5B2g    2.267195     7B1u    2.293354
       7B3u    2.298874     7B2u    2.298874     5B1g    2.313498
      14Ag     2.313498     8B1u    2.315643     2Au     2.315643
       8B3u    2.344656     8B2u    2.344656     9B1u    5.808050
       9B2u    5.861845     9B3u    5.861845    15Ag     5.945689
       6B2g    5.949995     6B3g    5.949995     6B1g    5.962972
      16Ag     5.962972     7B2g    5.984792     7B3g    5.984792
       7B1g    6.015769    17Ag     6.015769    18Ag     6.396246
       8B3g    6.412107     8B2g    6.412107     8B1g    6.461428
      19Ag     6.461428    10B1u    6.495077    10B3u    6.502980
      10B2u    6.502980    11B1u    6.526900     3Au     6.526900
      11B3u    6.567992    11B2u    6.567992    20Ag    20.476455

    Final Occupation by Irrep:
             Ag   B1g   B2g   B3g    Au   B1u   B2u   B3u
    DOCC [     2,    0,    0,    0,    0,    0,    0,    0 ]
    SOCC [     0,    0,    0,    0,    0,    0,    1,    1 ]

  Energy converged.

  @UHF Final Energy:   -37.69335153642183

   => Energetics <=

    Nuclear Repulsion Energy =              0.0000000000000000
    One-Electron Energy =                 -50.4491560917169721
    Two-Electron Energy =                  12.7558045552951462
    PCM Polarization Energy =               0.0000000000000000
    Total Energy =                        -37.6933515364218295

    Alert: EFP and PCM quantities not currently incorporated into SCF psivars.
  UHF NO Occupations:
  HONO-2 :    2 Ag 1.9947718
  HONO-1 :    1B3u 1.0000000
  HONO-0 :    1B2u 1.0000000
  LUNO+0 :    3 Ag 0.0052282
  LUNO+1 :    4 Ag 0.0000034
  LUNO+2 :    2B2u 0.0000000
  LUNO+3 :    5 Ag 0.0000000

Properties will be evaluated at   0.000000,   0.000000,   0.000000 Bohr

Properties computed using the SCF density matrix

  Nuclear Dipole Moment: (a.u.)
     X:     0.0000      Y:     0.0000      Z:     0.0000

  Electronic Dipole Moment: (a.u.)
     X:     0.0000      Y:     0.0000      Z:     0.0000

  Dipole Moment: (a.u.)
     X:     0.0000      Y:     0.0000      Z:     0.0000     Total:     0.0000

  Dipole Moment: (Debye)
     X:     0.0000      Y:     0.0000      Z:     0.0000     Total:     0.0000

*** tstop() called on cqc05 at Thu Aug 20 22:41:36 2020
Module time:
	user time   =       1.30 seconds =       0.02 minutes
	system time =       0.04 seconds =       0.00 minutes
	total time  =          1 seconds =       0.02 minutes
Total time:
	user time   =       1.30 seconds =       0.02 minutes
	system time =       0.04 seconds =       0.00 minutes
	total time  =          1 seconds =       0.02 minutes

*** tstart() called on cqc05
*** at Thu Aug 20 22:41:36 2020

	Wfn Parameters:
	--------------------
	Wavefunction         = CCSD
	Number of irreps     = 8
	Number of MOs        = 80
	Number of active MOs = 79
	AO-Basis             = NONE
	Semicanonical        = false
	Reference            = UHF
	Print Level          = 1

	IRREP	# MOs	# FZDC	# DOCC	# SOCC	# VIRT	# FZVR
	-----	-----	------	------	------	------	------
	 Ag	   20	    1	    1	    0	    18	    0
	 B1g	   8	    0	    0	    0	    8	    0
	 B2g	   8	    0	    0	    0	    8	    0
	 B3g	   8	    0	    0	    0	    8	    0
	 Au	   3	    0	    0	    0	    3	    0
	 B1u	   11	    0	    0	    0	    11	    0
	 B2u	   11	    0	    0	    1	    10	    0
	 B3u	   11	    0	    0	    1	    10	    0
	Transforming integrals...
	IWL integrals will be deleted.
	(OO|OO)...
	Presorting SO-basis two-electron integrals.
	Sorting File: SO Ints (nn|nn) nbuckets = 1
	Transforming the one-electron integrals and constructing Fock matrices
	Starting AA/AB first half-transformation.
	Sorting AA/AB half-transformed integrals.
	Starting BB first half-transformation.
	Sorting BB half-transformed integrals.
	First half integral transformation complete.
	Starting AA second half-transformation.
	Starting AB second half-transformation.
	Starting BB second half-transformation.
	Two-electron integral transformation complete.
	(OO|OV)...
	Starting AA second half-transformation.
	Starting AB second half-transformation.
	Starting BB second half-transformation.
	Two-electron integral transformation complete.
	(OO|VV)...
	Starting AA second half-transformation.
	Starting AB second half-transformation.
	Starting BB second half-transformation.
	Two-electron integral transformation complete.
	(OV|OO)...
	Starting AA/AB first half-transformation.
	Sorting AA/AB half-transformed integrals.
	Starting BB first half-transformation.
	Sorting BB half-transformed integrals.
	First half integral transformation complete.
	Starting AA second half-transformation.
	Starting AB second half-transformation.
	Starting BB second half-transformation.
	Two-electron integral transformation complete.
	(OV|OV)...
	Starting AA second half-transformation.
	Starting AB second half-transformation.
	Starting BB second half-transformation.
	Two-electron integral transformation complete.
	(OV|VV)...
	Starting AA second half-transformation.
	Starting AB second half-transformation.
	Starting BB second half-transformation.
	Two-electron integral transformation complete.
	(VV|OO)...
	Starting AA/AB first half-transformation.
	Sorting AA/AB half-transformed integrals.
	Starting BB first half-transformation.
	Sorting BB half-transformed integrals.
	First half integral transformation complete.
	Starting AA second half-transformation.
	Starting AB second half-transformation.
	Starting BB second half-transformation.
	Two-electron integral transformation complete.
	(VV|OV)...
	Starting AA second half-transformation.
	Starting AB second half-transformation.
	Starting BB second half-transformation.
	Two-electron integral transformation complete.
	(VV|VV)...
	Starting AA second half-transformation.
	Starting AB second half-transformation.
	Starting BB second half-transformation.
	Two-electron integral transformation complete.
	Frozen core energy     =    -32.35987186882782

	Size of irrep 0 of <AB|CD> integrals:      0.148 (MW) /      1.186 (MB)
	Size of irrep 1 of <AB|CD> integrals:      0.116 (MW) /      0.930 (MB)
	Size of irrep 2 of <AB|CD> integrals:      0.121 (MW) /      0.969 (MB)
	Size of irrep 3 of <AB|CD> integrals:      0.121 (MW) /      0.969 (MB)
	Size of irrep 4 of <AB|CD> integrals:      0.091 (MW) /      0.730 (MB)
	Size of irrep 5 of <AB|CD> integrals:      0.146 (MW) /      1.167 (MB)
	Size of irrep 6 of <AB|CD> integrals:      0.138 (MW) /      1.107 (MB)
	Size of irrep 7 of <AB|CD> integrals:      0.138 (MW) /      1.107 (MB)
	Total:                                     1.021 (MW) /      8.165 (MB)

	Size of irrep 0 of <ab|cd> integrals:      0.164 (MW) /      1.312 (MB)
	Size of irrep 1 of <ab|cd> integrals:      0.131 (MW) /      1.048 (MB)
	Size of irrep 2 of <ab|cd> integrals:      0.131 (MW) /      1.048 (MB)
	Size of irrep 3 of <ab|cd> integrals:      0.131 (MW) /      1.048 (MB)
	Size of irrep 4 of <ab|cd> integrals:      0.101 (MW) /      0.809 (MB)
	Size of irrep 5 of <ab|cd> integrals:      0.158 (MW) /      1.267 (MB)
	Size of irrep 6 of <ab|cd> integrals:      0.158 (MW) /      1.267 (MB)
	Size of irrep 7 of <ab|cd> integrals:      0.158 (MW) /      1.267 (MB)
	Total:                                     1.133 (MW) /      9.068 (MB)

	Size of irrep 0 of <Ab|Cd> integrals:      0.750 (MW) /      6.000 (MB)
	Size of irrep 1 of <Ab|Cd> integrals:      0.493 (MW) /      3.942 (MB)
	Size of irrep 2 of <Ab|Cd> integrals:      0.504 (MW) /      4.033 (MB)
	Size of irrep 3 of <Ab|Cd> integrals:      0.504 (MW) /      4.033 (MB)
	Size of irrep 4 of <Ab|Cd> integrals:      0.384 (MW) /      3.075 (MB)
	Size of irrep 5 of <Ab|Cd> integrals:      0.608 (MW) /      4.867 (MB)
	Size of irrep 6 of <Ab|Cd> integrals:      0.593 (MW) /      4.743 (MB)
	Size of irrep 7 of <Ab|Cd> integrals:      0.593 (MW) /      4.743 (MB)
	Total:                                     4.430 (MW) /     35.436 (MB)

	Size of irrep 0 of <IA|BC> integrals:      0.032 (MW) /      0.257 (MB)
	Size of irrep 1 of <IA|BC> integrals:      0.019 (MW) /      0.153 (MB)
	Size of irrep 2 of <IA|BC> integrals:      0.015 (MW) /      0.122 (MB)
	Size of irrep 3 of <IA|BC> integrals:      0.015 (MW) /      0.122 (MB)
	Size of irrep 4 of <IA|BC> integrals:      0.011 (MW) /      0.092 (MB)
	Size of irrep 5 of <IA|BC> integrals:      0.021 (MW) /      0.165 (MB)
	Size of irrep 6 of <IA|BC> integrals:      0.027 (MW) /      0.214 (MB)
	Size of irrep 7 of <IA|BC> integrals:      0.027 (MW) /      0.214 (MB)
	Total:                                     0.168 (MW) /      1.340 (MB)

	Size of irrep 0 of <ia|bc> integrals:      0.016 (MW) /      0.128 (MB)
	Size of irrep 1 of <ia|bc> integrals:      0.006 (MW) /      0.046 (MB)
	Size of irrep 2 of <ia|bc> integrals:      0.006 (MW) /      0.046 (MB)
	Size of irrep 3 of <ia|bc> integrals:      0.006 (MW) /      0.046 (MB)
	Size of irrep 4 of <ia|bc> integrals:      0.002 (MW) /      0.015 (MB)
	Size of irrep 5 of <ia|bc> integrals:      0.009 (MW) /      0.070 (MB)
	Size of irrep 6 of <ia|bc> integrals:      0.009 (MW) /      0.070 (MB)
	Size of irrep 7 of <ia|bc> integrals:      0.009 (MW) /      0.070 (MB)
	Total:                                     0.062 (MW) /      0.492 (MB)

	Size of irrep 0 of <Ia|Bc> integrals:      0.035 (MW) /      0.277 (MB)
	Size of irrep 1 of <Ia|Bc> integrals:      0.021 (MW) /      0.168 (MB)
	Size of irrep 2 of <Ia|Bc> integrals:      0.016 (MW) /      0.125 (MB)
	Size of irrep 3 of <Ia|Bc> integrals:      0.016 (MW) /      0.125 (MB)
	Size of irrep 4 of <Ia|Bc> integrals:      0.012 (MW) /      0.094 (MB)
	Size of irrep 5 of <Ia|Bc> integrals:      0.021 (MW) /      0.168 (MB)
	Size of irrep 6 of <Ia|Bc> integrals:      0.028 (MW) /      0.228 (MB)
	Size of irrep 7 of <Ia|Bc> integrals:      0.028 (MW) /      0.228 (MB)
	Total:                                     0.177 (MW) /      1.414 (MB)

	Size of irrep 0 of <iA|bC> integrals:      0.016 (MW) /      0.125 (MB)
	Size of irrep 1 of <iA|bC> integrals:      0.006 (MW) /      0.045 (MB)
	Size of irrep 2 of <iA|bC> integrals:      0.006 (MW) /      0.045 (MB)
	Size of irrep 3 of <iA|bC> integrals:      0.006 (MW) /      0.045 (MB)
	Size of irrep 4 of <iA|bC> integrals:      0.002 (MW) /      0.015 (MB)
	Size of irrep 5 of <iA|bC> integrals:      0.009 (MW) /      0.069 (MB)
	Size of irrep 6 of <iA|bC> integrals:      0.008 (MW) /      0.062 (MB)
	Size of irrep 7 of <iA|bC> integrals:      0.008 (MW) /      0.062 (MB)
	Total:                                     0.058 (MW) /      0.467 (MB)

	Size of irrep 0 of tIjAb amplitudes:       0.001 (MW) /      0.007 (MB)
	Size of irrep 1 of tIjAb amplitudes:       0.000 (MW) /      0.000 (MB)
	Size of irrep 2 of tIjAb amplitudes:       0.000 (MW) /      0.000 (MB)
	Size of irrep 3 of tIjAb amplitudes:       0.000 (MW) /      0.000 (MB)
	Size of irrep 4 of tIjAb amplitudes:       0.000 (MW) /      0.000 (MB)
	Size of irrep 5 of tIjAb amplitudes:       0.000 (MW) /      0.000 (MB)
	Size of irrep 6 of tIjAb amplitudes:       0.001 (MW) /      0.006 (MB)
	Size of irrep 7 of tIjAb amplitudes:       0.001 (MW) /      0.006 (MB)
	Total:                                     0.002 (MW) /      0.019 (MB)

	Nuclear Rep. energy          =      0.00000000000000
	SCF energy                   =    -37.69335153642183
	One-electron energy          =     -8.37599906430924
	Two-electron (AA) energy     =      1.38135909819682
	Two-electron (BB) energy     =      0.00000000000000
	Two-electron (AB) energy     =      1.66116029851834
	Two-electron energy          =      3.04251939671516
	Reference energy             =    -37.69335153642190

*** tstop() called on cqc05 at Thu Aug 20 22:41:37 2020
Module time:
	user time   =       0.44 seconds =       0.01 minutes
	system time =       0.30 seconds =       0.01 minutes
	total time  =          1 seconds =       0.02 minutes
Total time:
	user time   =       1.74 seconds =       0.03 minutes
	system time =       0.34 seconds =       0.01 minutes
	total time  =          2 seconds =       0.03 minutes

*** tstart() called on cqc05
*** at Thu Aug 20 22:41:37 2020

            **************************
            *                        *
            *        CCENERGY        *
            *                        *
            **************************

    Nuclear Rep. energy (wfn)     =    0.000000000000000
    SCF energy          (wfn)     =  -37.693351536421829
    Reference energy    (file100) =  -37.693351536421901

    Input parameters:
    -----------------
    Wave function   =     CCSD
    Reference wfn   =     UHF
    Brueckner       =     No
    Memory (Mbytes) =     250000.0
    Maxiter         =     50
    R_Convergence   =     1.0e-07
    E_Convergence   =     1.0e-06
    Restart         =     Yes
    DIIS            =     Yes
    AO Basis        =     NONE
    ABCD            =     NEW
    Cache Level     =     2
    Cache Type      =     LRU
    Print Level     =     1
    Num. of threads =     4
    # Amps to Print =     10
    Print MP2 Amps? =     No
    Analyze T2 Amps =     No
    Print Pair Ener =     No
    Local CC        =     No
    SCS-MP2         =     False
    SCSN-MP2        =     False
    SCS-CCSD        =     False

MP2 correlation energy -0.0725205613399302
                Solving CC Amplitude Equations
                ------------------------------
  Iter             Energy              RMS        T1Diag      D1Diag    New D1Diag    D2Diag
  ----     ---------------------    ---------   ----------  ----------  ----------   --------
     0        -0.072520561339930    0.000e+00    0.000000    0.000000    0.000000    0.000000
     1        -0.084439234155912    4.505e-02    0.006662    0.000000    0.000000    0.000000
     2        -0.090606624870506    2.053e-02    0.012089    0.000000    0.000000    0.000000
     3        -0.091087959279206    5.074e-03    0.013834    0.000000    0.000000    0.000000
     4        -0.091125043422710    9.155e-04    0.013979    0.000000    0.000000    0.000000
     5        -0.091117423782182    2.355e-04    0.013948    0.000000    0.000000    0.000000
     6        -0.091120215659061    6.524e-05    0.013933    0.000000    0.000000    0.000000
     7        -0.091120694229400    1.665e-05    0.013931    0.000000    0.000000    0.000000
     8        -0.091120431329156    5.066e-06    0.013930    0.000000    0.000000    0.000000
     9        -0.091120443500243    1.715e-06    0.013930    0.000000    0.000000    0.000000
    10        -0.091120443843342    5.832e-07    0.013931    0.000000    0.000000    0.000000
    11        -0.091120443328232    1.323e-07    0.013931    0.000000    0.000000    0.000000
    12        -0.091120440513696    3.767e-08    0.013931    0.000000    0.000000    0.000000
    12        -0.091120440513696    3.767e-08    0.013931    0.000000    0.000000    0.000000

    Iterations converged.

    CCSD corr. energy   =   -0.091120440513696
    PPL corr. energy    =    0.028822043504602
    OS PPL corr. energy =    0.026044416419984
    SS PPL corr. energy =    0.002777627084618
    Largest TIA Amplitudes:
              0   5        -0.0132992052
              0   1         0.0075890741
              0  11         0.0069557453
              1  56        -0.0058638459
              2  66        -0.0058638459
              1  57        -0.0040277315
              2  67        -0.0040277315
              0   0        -0.0024925546
              1  60         0.0015996629
              2  70         0.0015996629

    Largest Tia Amplitudes:
              0   3         0.0141534783
              0   0        -0.0117503385
              0   8        -0.0054276149
              0   1         0.0007236459

      * MP2 total energy                      =  -37.765872097761829
      * CCSD total energy                     =  -37.784471976935599
*** Psi4 exiting successfully. Buy a developer a beer!
