                               Psi4 1.2a1.dev938

  ==> Input File <==

--------------------------------------------------------------------------
# Any line starting with the # character is a comment line
memory 250000 mb
molecule molecule{
-1 2
S          0.0000000000        0.0000000000        1.0065241194
S          0.0000000000        0.0000000000       -1.0065241194
}

set {
  reference uhf
  basis aug-cc-pv(q+d)z
  scf_type OUT_OF_CORE
  freeze_core true
}

energy('ccsd')
--------------------------------------------------------------------------

    Molecular point group: d2h

    Geometry (in Angstrom), charge = -1, multiplicity = 2:

       Center              X                  Y                   Z               Mass
    ------------   -----------------  -----------------  -----------------  -----------------
           S          0.000000000000     0.000000000000     1.006524119400    31.972070999000
           S          0.000000000000     0.000000000000    -1.006524119400    31.972070999000

  Charge       = -1
  Multiplicity = 2
  Basis Set: AUG-CC-PV(Q+D)Z
    Blend: AUG-CC-PV(Q+D)Z

    Orbital Energies (a.u.)
    -----------------------

    Alpha Occupied:

       1Ag   -91.744806     1B1u  -91.744804     2Ag    -8.744266
       2B1u   -8.744051     1B3u   -6.433515     1B2g   -6.433488
       3Ag    -6.423737     3B1u   -6.423208     1B2u   -6.422108
       1B3g   -6.422078     4Ag    -0.803418     4B1u   -0.593865
       2B3u   -0.264286     5Ag    -0.257127     2B2u   -0.229534
       2B2g   -0.135398     2B3g   -0.092567

    Alpha Virtual:

       5B1u    0.155907     6Ag     0.198108     3B3u    0.215483
       3B2g    0.216903     3B2u    0.219547     3B3g    0.220293
       7Ag     0.262754     6B1u    0.285598     1B1g    0.359263
       8Ag     0.359363     7B1u    0.372765     9Ag     0.395359
       4B3u    0.409817     4B2u    0.417177     4B2g    0.419118
       1Au     0.421591     8B1u    0.421784     4B3g    0.424770
       9B1u    0.458763     5B3u    0.582009     5B2u    0.594636
      10Ag     0.630776    10B1u    0.655455    11Ag     0.670358
       5B2g    0.670927     6B3u    0.671807     5B3g    0.684410
       2B1g    0.689095    12Ag     0.690199     6B2u    0.691396
       7B3u    0.716996     7B2u    0.717011     2Au     0.766509
      11B1u    0.766537    13Ag     0.783532     6B2g    0.808371
       3B1g    0.812130    14Ag     0.813722     6B3g    0.820308
       7B2g    0.827166     7B3g    0.827404    12B1u    0.872303
       8B3u    0.952018     8B2u    0.961997    13B1u    0.970180
       3Au     0.970565    14B1u    1.016769    15Ag     1.129888
       8B2g    1.138122     8B3g    1.155330    15B1u    1.253888
       9B3u    1.467988     9B2u    1.482601     4B1g    1.515951
      16Ag     1.516072    17Ag     1.552626    16B1u    1.592272
       4Au     1.594903    10B3u    1.618186    10B2u    1.618205
       5B1g    1.630532    18Ag     1.630534    17B1u    1.630655
       9B2g    1.634172     6B1g    1.653199    19Ag     1.653222
       9B3g    1.657349    20Ag     1.670545    11B3u    1.737789
      11B2u    1.741411    12B3u    1.752140    12B2u    1.773856
       5Au     1.777836    18B1u    1.777837    13B3u    1.799661
      10B2g    1.800540    10B3g    1.800573    13B2u    1.817426
      19B1u    1.870897     6Au     1.871887    11B2g    1.877457
      11B3g    1.892710    21Ag     1.894742    20B1u    1.946170
      12B2g    1.946394     7B1g    1.953327    22Ag     1.954973
      12B3g    1.964892    13B2g    2.018386    13B3g    2.018464
      14B3u    2.302890    14B2u    2.318376    21B1u    2.325020
       7Au     2.434779    22B1u    2.435391    23Ag     2.530610
      23B1u    2.549142    14B2g    2.870309    14B3g    2.891350
      24Ag     2.935080    24B1u    3.050181     8B1g    3.291707
      25Ag     3.292021    15B3u    3.348211     8Au     3.364880
      25B1u    3.365718    15B2u    3.366408    26Ag     3.515783
      15B2g    3.651495    15B3g    3.671434    27Ag     3.743305
      16B3u    3.844003    16B2u    3.859128     9B1g    3.899230
      28Ag     3.900087    17B3u    3.909977    17B2u    3.910027
      16B2g    3.965359    16B3g    3.965369    29Ag     4.010928
      10B1g    4.011067    26B1u    4.030182    18B3u    4.034139
      18B2u    4.034165    30Ag     4.063066    11B1g    4.063066
       9Au     4.114721    27B1u    4.116632    10Au     4.120542
      28B1u    4.120655    17B2g    4.197995    17B3g    4.216974
      18B2g    4.233744    18B3g    4.233845    19B3u    4.252491
      19B2u    4.274604    29B1u    4.303012    31Ag     4.408834
      11Au     4.497773    30B1u    4.498680    19B2g    4.863915
      19B3g    4.881913    31B1u    5.528130    20B3u    5.902689
      20B2u    5.926713    20B2g    6.481526    20B3g    6.505327
      32B1u    6.971033    32Ag     7.172596    33Ag     9.504559
      12B1g    9.504680    21B3u    9.563633    33B1u    9.564276
      12Au     9.564347    21B2u    9.575953    34Ag     9.843484
      21B2g    9.848794    21B3g    9.861604    34B1u   10.130165
      35Ag    18.230509    35B1u   20.847065

    Beta Occupied:

       1Ag   -91.739397     1B1u  -91.739393     2Ag    -8.738337
       2B1u   -8.738082     3Ag    -6.421108     3B1u   -6.420563
       1B2u   -6.418648     1B3g   -6.418618     1B3u   -6.409582
       1B2g   -6.409530     4Ag    -0.766506     4B1u   -0.524001
       5Ag    -0.240094     2B2u   -0.220871     2B3u   -0.144622
       2B3g   -0.079524

    Beta Virtual:

       5B1u    0.156268     2B2g    0.194957     6Ag     0.198664
       3B3u    0.218478     3B2u    0.219611     3B3g    0.220746
       3B2g    0.250274     7Ag     0.261183     6B1u    0.290398
       1B1g    0.361260     8Ag     0.361454     7B1u    0.378105
       9Ag     0.396606     4B2u    0.415931     4B3u    0.419721
       4B3g    0.425463     1Au     0.426608     8B1u    0.426635
       4B2g    0.432337     9B1u    0.465597     5B3u    0.595170
       5B2u    0.595910    10Ag     0.634038    10B1u    0.659524
      11Ag     0.673878     5B3g    0.686915     6B2u    0.691624
       5B2g    0.698546     2B1g    0.704828    12Ag     0.705023
       6B3u    0.713708     7B2u    0.718198     7B3u    0.719662
      13Ag     0.790873     2Au     0.796220    11B1u    0.796517
       3B1g    0.819819    14Ag     0.819993     6B3g    0.820189
       6B2g    0.823195     7B3g    0.831009     7B2g    0.831070
      12B1u    0.877921     8B3u    0.960691     8B2u    0.962286
      13B1u    0.980197     3Au     0.980204    14B1u    1.022896
      15Ag     1.144071     8B3g    1.157673     8B2g    1.164370
      15B1u    1.260065     9B3u    1.476244     9B2u    1.483395
      16Ag     1.532947     4B1g    1.533682    17Ag     1.553838
       4Au     1.616005    16B1u    1.616046    10B3u    1.619008
      10B2u    1.619011     5B1g    1.634698    18Ag     1.634699
      17B1u    1.636775     9B3g    1.660326     6B1g    1.663890
      19Ag     1.664008     9B2g    1.666511    20Ag     1.673349
      11B2u    1.758277    11B3u    1.758347    12B2u    1.775915
      12B3u    1.776971    18B1u    1.784013     5Au     1.784013
      10B3g    1.818330    10B2g    1.818331    13B2u    1.819454
      13B3u    1.824698    19B1u    1.881047     6Au     1.881190
      11B2g    1.885174    11B3g    1.892627    21Ag     1.900066
      20B1u    1.950698     7B1g    1.958293    22Ag     1.958702
      12B2g    1.964072    12B3g    1.967636    13B2g    2.022951
      13B3g    2.022965    14B3u    2.312688    14B2u    2.319284
      21B1u    2.330453     7Au     2.441818    22B1u    2.441946
      23Ag     2.544344    23B1u    2.555815    14B2g    2.889310
      14B3g    2.893718    24Ag     2.940659    24B1u    3.059578
      25Ag     3.301888     8B1g    3.301906    15B3u    3.358200
      15B2u    3.367688     8Au     3.375219    25B1u    3.375330
      26Ag     3.518163    15B2g    3.663119    15B3g    3.672990
      27Ag     3.748521    16B3u    3.851292    16B2u    3.860829
       9B1g    3.906201    28Ag     3.906413    17B3u    3.928637
      17B2u    3.928640    16B2g    3.983637    16B3g    3.983637
      29Ag     4.022518    10B1g    4.022554    26B1u    4.038469
      18B3u    4.044085    18B2u    4.044088    30Ag     4.077825
      11B1g    4.077825     9Au     4.125936    27B1u    4.126175
      10Au     4.135255    28B1u    4.135255    17B2g    4.211056
      17B3g    4.218727    18B2g    4.244297    18B3g    4.244306
      19B3u    4.267462    19B2u    4.275803    29B1u    4.309071
      31Ag     4.413989    11Au     4.505323    30B1u    4.505550
      19B2g    4.873044    19B3g    4.882795    31B1u    5.530378
      20B3u    5.926412    20B2u    5.930362    20B2g    6.502268
      20B3g    6.508633    32B1u    6.973775    32Ag     7.175144
      33Ag     9.511458    12B1g    9.511496    21B3u    9.570059
      33B1u    9.571263    12Au     9.571285    21B2u    9.577001
      34Ag     9.846758    21B2g    9.855605    21B3g    9.862768
      34B1u   10.133818    35Ag    18.237144    35B1u   20.852942

    Final Occupation by Irrep:
             Ag   B1g   B2g   B3g    Au   B1u   B2u   B3u
    DOCC [     5,    0,    1,    2,    0,    4,    2,    2 ]
    SOCC [     0,    0,    1,    0,    0,    0,    0,    0 ]

  Energy converged.

  @UHF Final Energy:  -795.13714137925319

   => Energetics <=

    Nuclear Repulsion Energy =             67.2956379226136931
    One-Electron Energy =               -1241.5244262202904793
    Two-Electron Energy =                 379.0916469184235780
    PCM Polarization Energy =               0.0000000000000000
    Total Energy =                       -795.1371413792533076

    Alert: EFP and PCM quantities not currently incorporated into SCF psivars.
  UHF NO Occupations:
  HONO-2 :    4B1u 1.9974491
  HONO-1 :    2B3u 1.9877175
  HONO-0 :    2B2g 1.0000000
  LUNO+0 :    3B3u 0.0122825
  LUNO+1 :    5B1u 0.0025509
  LUNO+2 :    6 Ag 0.0023168
  LUNO+3 :    3B3g 0.0003303

Properties will be evaluated at   0.000000,   0.000000,   0.000000 Bohr

Properties computed using the SCF density matrix

  Nuclear Dipole Moment: (a.u.)
     X:     0.0000      Y:     0.0000      Z:     0.0000

  Electronic Dipole Moment: (a.u.)
     X:     0.0000      Y:     0.0000      Z:     0.0000

  Dipole Moment: (a.u.)
     X:     0.0000      Y:     0.0000      Z:     0.0000     Total:     0.0000

  Dipole Moment: (Debye)
     X:     0.0000      Y:     0.0000      Z:     0.0000     Total:     0.0000

*** tstop() called on cqc05 at Thu Aug 20 21:50:26 2020
Module time:
	user time   =      16.47 seconds =       0.27 minutes
	system time =       0.65 seconds =       0.01 minutes
	total time  =         17 seconds =       0.28 minutes
Total time:
	user time   =      16.47 seconds =       0.27 minutes
	system time =       0.65 seconds =       0.01 minutes
	total time  =         17 seconds =       0.28 minutes

*** tstart() called on cqc05
*** at Thu Aug 20 21:50:26 2020

	Wfn Parameters:
	--------------------
	Wavefunction         = CCSD
	Number of irreps     = 8
	Number of MOs        = 178
	Number of active MOs = 168
	AO-Basis             = NONE
	Semicanonical        = false
	Reference            = UHF
	Print Level          = 1

	IRREP	# MOs	# FZDC	# DOCC	# SOCC	# VIRT	# FZVR
	-----	-----	------	------	------	------	------
	 Ag	   35	    3	    2	    0	    30	    0
	 B1g	   12	    0	    0	    0	    12	    0
	 B2g	   21	    1	    0	    1	    19	    0
	 B3g	   21	    1	    1	    0	    19	    0
	 Au	   12	    0	    0	    0	    12	    0
	 B1u	   35	    3	    1	    0	    31	    0
	 B2u	   21	    1	    1	    0	    19	    0
	 B3u	   21	    1	    1	    0	    19	    0
	Transforming integrals...
	IWL integrals will be deleted.
	(OO|OO)...
	Presorting SO-basis two-electron integrals.
	Sorting File: SO Ints (nn|nn) nbuckets = 1
	Transforming the one-electron integrals and constructing Fock matrices
	Starting AA/AB first half-transformation.
	Sorting AA/AB half-transformed integrals.
	Starting BB first half-transformation.
	Sorting BB half-transformed integrals.
	First half integral transformation complete.
	Starting AA second half-transformation.
	Starting AB second half-transformation.
	Starting BB second half-transformation.
	Two-electron integral transformation complete.
	(OO|OV)...
	Starting AA second half-transformation.
	Starting AB second half-transformation.
	Starting BB second half-transformation.
	Two-electron integral transformation complete.
	(OO|VV)...
	Starting AA second half-transformation.
	Starting AB second half-transformation.
	Starting BB second half-transformation.
	Two-electron integral transformation complete.
	(OV|OO)...
	Starting AA/AB first half-transformation.
	Sorting AA/AB half-transformed integrals.
	Starting BB first half-transformation.
	Sorting BB half-transformed integrals.
	First half integral transformation complete.
	Starting AA second half-transformation.
	Starting AB second half-transformation.
	Starting BB second half-transformation.
	Two-electron integral transformation complete.
	(OV|OV)...
	Starting AA second half-transformation.
	Starting AB second half-transformation.
	Starting BB second half-transformation.
	Two-electron integral transformation complete.
	(OV|VV)...
	Starting AA second half-transformation.
	Starting AB second half-transformation.
	Starting BB second half-transformation.
	Two-electron integral transformation complete.
	(VV|OO)...
	Starting AA/AB first half-transformation.
	Sorting AA/AB half-transformed integrals.
	Starting BB first half-transformation.
	Sorting BB half-transformed integrals.
	First half integral transformation complete.
	Starting AA second half-transformation.
	Starting AB second half-transformation.
	Starting BB second half-transformation.
	Two-electron integral transformation complete.
	(VV|OV)...
	Starting AA second half-transformation.
	Starting AB second half-transformation.
	Starting BB second half-transformation.
	Two-electron integral transformation complete.
	(VV|VV)...
	Starting AA second half-transformation.
	Starting AB second half-transformation.
	Starting BB second half-transformation.
	Two-electron integral transformation complete.
	Frozen core energy     =   -832.94086446246490

	Size of irrep 0 of <AB|CD> integrals:      2.945 (MW) /     23.557 (MB)
	Size of irrep 1 of <AB|CD> integrals:      2.114 (MW) /     16.913 (MB)
	Size of irrep 2 of <AB|CD> integrals:      2.608 (MW) /     20.866 (MB)
	Size of irrep 3 of <AB|CD> integrals:      2.608 (MW) /     20.866 (MB)
	Size of irrep 4 of <AB|CD> integrals:      2.114 (MW) /     16.913 (MB)
	Size of irrep 5 of <AB|CD> integrals:      3.226 (MW) /     25.805 (MB)
	Size of irrep 6 of <AB|CD> integrals:      2.608 (MW) /     20.866 (MB)
	Size of irrep 7 of <AB|CD> integrals:      2.608 (MW) /     20.866 (MB)
	Total:                                    20.831 (MW) /    166.651 (MB)

	Size of irrep 0 of <ab|cd> integrals:      3.010 (MW) /     24.082 (MB)
	Size of irrep 1 of <ab|cd> integrals:      2.170 (MW) /     17.358 (MB)
	Size of irrep 2 of <ab|cd> integrals:      2.706 (MW) /     21.648 (MB)
	Size of irrep 3 of <ab|cd> integrals:      2.647 (MW) /     21.177 (MB)
	Size of irrep 4 of <ab|cd> integrals:      2.170 (MW) /     17.358 (MB)
	Size of irrep 5 of <ab|cd> integrals:      3.294 (MW) /     26.354 (MB)
	Size of irrep 6 of <ab|cd> integrals:      2.647 (MW) /     21.177 (MB)
	Size of irrep 7 of <ab|cd> integrals:      2.709 (MW) /     21.675 (MB)
	Total:                                    21.354 (MW) /    170.828 (MB)

	Size of irrep 0 of <Ab|Cd> integrals:     13.047 (MW) /    104.372 (MB)
	Size of irrep 1 of <Ab|Cd> integrals:      8.567 (MW) /     68.539 (MB)
	Size of irrep 2 of <Ab|Cd> integrals:     10.628 (MW) /     85.021 (MB)
	Size of irrep 3 of <Ab|Cd> integrals:     10.511 (MW) /     84.085 (MB)
	Size of irrep 4 of <Ab|Cd> integrals:      8.567 (MW) /     68.539 (MB)
	Size of irrep 5 of <Ab|Cd> integrals:     13.039 (MW) /    104.315 (MB)
	Size of irrep 6 of <Ab|Cd> integrals:     10.511 (MW) /     84.085 (MB)
	Size of irrep 7 of <Ab|Cd> integrals:     10.634 (MW) /     85.073 (MB)
	Total:                                    85.503 (MW) /    684.027 (MB)

	Size of irrep 0 of <IA|BC> integrals:      0.600 (MW) /      4.800 (MB)
	Size of irrep 1 of <IA|BC> integrals:      0.326 (MW) /      2.606 (MB)
	Size of irrep 2 of <IA|BC> integrals:      0.459 (MW) /      3.669 (MB)
	Size of irrep 3 of <IA|BC> integrals:      0.459 (MW) /      3.669 (MB)
	Size of irrep 4 of <IA|BC> integrals:      0.326 (MW) /      2.606 (MB)
	Size of irrep 5 of <IA|BC> integrals:      0.603 (MW) /      4.828 (MB)
	Size of irrep 6 of <IA|BC> integrals:      0.459 (MW) /      3.669 (MB)
	Size of irrep 7 of <IA|BC> integrals:      0.459 (MW) /      3.669 (MB)
	Total:                                     3.690 (MW) /     29.516 (MB)

	Size of irrep 0 of <ia|bc> integrals:      0.538 (MW) /      4.300 (MB)
	Size of irrep 1 of <ia|bc> integrals:      0.277 (MW) /      2.215 (MB)
	Size of irrep 2 of <ia|bc> integrals:      0.375 (MW) /      3.000 (MB)
	Size of irrep 3 of <ia|bc> integrals:      0.423 (MW) /      3.384 (MB)
	Size of irrep 4 of <ia|bc> integrals:      0.277 (MW) /      2.215 (MB)
	Size of irrep 5 of <ia|bc> integrals:      0.544 (MW) /      4.356 (MB)
	Size of irrep 6 of <ia|bc> integrals:      0.423 (MW) /      3.384 (MB)
	Size of irrep 7 of <ia|bc> integrals:      0.369 (MW) /      2.950 (MB)
	Total:                                     3.226 (MW) /     25.806 (MB)

	Size of irrep 0 of <Ia|Bc> integrals:      0.607 (MW) /      4.855 (MB)
	Size of irrep 1 of <Ia|Bc> integrals:      0.331 (MW) /      2.646 (MB)
	Size of irrep 2 of <Ia|Bc> integrals:      0.469 (MW) /      3.756 (MB)
	Size of irrep 3 of <Ia|Bc> integrals:      0.460 (MW) /      3.683 (MB)
	Size of irrep 4 of <Ia|Bc> integrals:      0.331 (MW) /      2.646 (MB)
	Size of irrep 5 of <Ia|Bc> integrals:      0.610 (MW) /      4.882 (MB)
	Size of irrep 6 of <Ia|Bc> integrals:      0.460 (MW) /      3.683 (MB)
	Size of irrep 7 of <Ia|Bc> integrals:      0.466 (MW) /      3.731 (MB)
	Total:                                     3.735 (MW) /     29.881 (MB)

	Size of irrep 0 of <iA|bC> integrals:      0.535 (MW) /      4.277 (MB)
	Size of irrep 1 of <iA|bC> integrals:      0.272 (MW) /      2.178 (MB)
	Size of irrep 2 of <iA|bC> integrals:      0.365 (MW) /      2.921 (MB)
	Size of irrep 3 of <iA|bC> integrals:      0.421 (MW) /      3.372 (MB)
	Size of irrep 4 of <iA|bC> integrals:      0.272 (MW) /      2.178 (MB)
	Size of irrep 5 of <iA|bC> integrals:      0.538 (MW) /      4.304 (MB)
	Size of irrep 6 of <iA|bC> integrals:      0.421 (MW) /      3.372 (MB)
	Size of irrep 7 of <iA|bC> integrals:      0.362 (MW) /      2.896 (MB)
	Total:                                     3.187 (MW) /     25.496 (MB)

	Size of irrep 0 of tIjAb amplitudes:       0.029 (MW) /      0.231 (MB)
	Size of irrep 1 of tIjAb amplitudes:       0.009 (MW) /      0.070 (MB)
	Size of irrep 2 of tIjAb amplitudes:       0.013 (MW) /      0.104 (MB)
	Size of irrep 3 of tIjAb amplitudes:       0.019 (MW) /      0.156 (MB)
	Size of irrep 4 of tIjAb amplitudes:       0.009 (MW) /      0.070 (MB)
	Size of irrep 5 of tIjAb amplitudes:       0.025 (MW) /      0.202 (MB)
	Size of irrep 6 of tIjAb amplitudes:       0.019 (MW) /      0.156 (MB)
	Size of irrep 7 of tIjAb amplitudes:       0.016 (MW) /      0.130 (MB)
	Total:                                     0.140 (MW) /      1.120 (MB)

	Nuclear Rep. energy          =     67.29563792261369
	SCF energy                   =   -795.13714137925319
	One-electron energy          =    -54.63201621717093
	Two-electron (AA) energy     =      6.18422942804941
	Two-electron (BB) energy     =      4.40371930024425
	Two-electron (AB) energy     =     14.55215264947912
	Two-electron energy          =     25.14010137777277
	Reference energy             =   -795.13714137924933

*** tstop() called on cqc05 at Thu Aug 20 21:50:42 2020
Module time:
	user time   =       9.41 seconds =       0.16 minutes
	system time =       6.32 seconds =       0.11 minutes
	total time  =         16 seconds =       0.27 minutes
Total time:
	user time   =      25.88 seconds =       0.43 minutes
	system time =       6.97 seconds =       0.12 minutes
	total time  =         33 seconds =       0.55 minutes

*** tstart() called on cqc05
*** at Thu Aug 20 21:50:42 2020

            **************************
            *                        *
            *        CCENERGY        *
            *                        *
            **************************

    Nuclear Rep. energy (wfn)     =   67.295637922613693
    SCF energy          (wfn)     = -795.137141379253194
    Reference energy    (file100) = -795.137141379249329

    Input parameters:
    -----------------
    Wave function   =     CCSD
    Reference wfn   =     UHF
    Brueckner       =     No

      * MP2 total energy                      = -795.510618416319176
      * CCSD total energy                     = -795.533486964073745
*** Psi4 exiting successfully. Buy a developer a beer!
