                               Psi4 1.2a1.dev939

  ==> Input File <==

--------------------------------------------------------------------------
# Any line starting with the # character is a comment line

memory 32000 mb

molecule molecule {
0 1
N          0.0000000000        0.0000000000       -0.5570422157
N          0.0000000000        0.0000000000        0.5570422157
}

set {
  reference rhf
  basis aug-cc-pv(Q+d)z
  scf_type OUT_OF_CORE
  freeze_core true
}

energy('ccsd')
--------------------------------------------------------------------------

    Molecular point group: d2h

    Geometry (in Angstrom), charge = 0, multiplicity = 1:

       Center              X                  Y                   Z               Mass
    ------------   -----------------  -----------------  -----------------  -----------------
           N          0.000000000000     0.000000000000    -0.557042215700    14.003074004780
           N          0.000000000000     0.000000000000     0.557042215700    14.003074004780

  Charge       = 0
  Multiplicity = 1
  Basis Set: AUG-CC-PV(Q+D)Z
    Blend: AUG-CC-PV(Q+D)Z

    Orbital Energies (a.u.)
    -----------------------

    Doubly Occupied:

       1Ag   -15.689506     1B1u  -15.686287     2Ag    -1.459437
       2B1u   -0.784687     3Ag    -0.633013     1B3u   -0.607372
       1B2u   -0.607372

  @RHF Final Energy:  -108.98749359813559

   => Energetics <=

    Nuclear Repulsion Energy =             23.2744327899150285
    One-Electron Energy =                -193.5885043323099808
    Two-Electron Energy =                  61.3265779442593555
    Total Energy =                       -108.9874935981355861
      * MP2 total energy                      = -109.393666116244617
      * CCSD total energy                     = -109.385689269152437
*** Psi4 exiting successfully. Buy a developer a beer!
