                               Psi4 1.2a1.dev939

  ==> Input File <==

--------------------------------------------------------------------------
# Any line starting with the # character is a comment line
memory 250000 mb
molecule molecule{
0 1
N          0.0000000000        0.0000000000       -0.5570422157
N          0.0000000000        0.0000000000        0.5570422157
}

set {
  reference rhf
  basis aug-cc-pv(6+d)z
  scf_type OUT_OF_CORE
  freeze_core true
}

energy('ccsd')
--------------------------------------------------------------------------

    Molecular point group: d2h

    Geometry (in Angstrom), charge = 0, multiplicity = 1:

       Center              X                  Y                   Z               Mass
    ------------   -----------------  -----------------  -----------------  -----------------
           N          0.000000000000     0.000000000000    -0.557042215700    14.003074004780
           N          0.000000000000     0.000000000000     0.557042215700    14.003074004780

  Charge       = 0
  Multiplicity = 1
  Basis Set: AUG-CC-PV(6+D)Z
    Blend: AUG-CC-PV(6+D)Z

    Orbital Energies (a.u.)
    -----------------------

    Doubly Occupied:

       1Ag   -15.688945     1B1u  -15.685722     2Ag    -1.459122
       2B1u   -0.784525     3Ag    -0.633002     1B2u   -0.607310
       1B3u   -0.607310

  @RHF Final Energy:  -108.98904668029085

   => Energetics <=

    Nuclear Repulsion Energy =             23.2744327899150285
    One-Electron Energy =                -193.5950861700786731
    Two-Electron Energy =                  61.3316066998727791
    PCM Polarization Energy =               0.0000000000000000
    Total Energy =                       -108.9890466802908549
      * MP2 total energy                      = -109.408199427539515
      * CCSD total energy                     = -109.396081206447491
*** Psi4 exiting successfully. Buy a developer a beer!
