                               Psi4 1.2a1.dev939

  ==> Input File <==

--------------------------------------------------------------------------
# Any line starting with the # character is a comment line

memory 32000 mb

molecule molecule {
0 1
N          0.0000000000        0.0000000000       -0.5570422157
N          0.0000000000        0.0000000000        0.5570422157
}

set {
  reference rhf
  basis aug-cc-pv(T+d)z
  scf_type OUT_OF_CORE
  freeze_core true
}

energy('ccsd')
--------------------------------------------------------------------------

    Molecular point group: d2h

    Geometry (in Angstrom), charge = 0, multiplicity = 1:

       Center              X                  Y                   Z               Mass
    ------------   -----------------  -----------------  -----------------  -----------------
           N          0.000000000000     0.000000000000    -0.557042215700    14.003074004780
           N          0.000000000000     0.000000000000     0.557042215700    14.003074004780

  Charge       = 0
  Multiplicity = 1
  Basis Set: AUG-CC-PV(T+D)Z
    Blend: AUG-CC-PV(T+D)Z

    Orbital Energies (a.u.)
    -----------------------

    Doubly Occupied:

       1Ag   -15.691416     1B1u  -15.688196     2Ag    -1.460643
       2B1u   -0.785116     3Ag    -0.633146     1B3u   -0.607629
       1B2u   -0.607629

  @RHF Final Energy:  -108.98075988314743

   => Energetics <=

    Nuclear Repulsion Energy =             23.2744327899150285
    One-Electron Energy =                -193.5628380243652771
    Two-Electron Energy =                  61.3076453513028099
    Total Energy =                       -108.9807598831474280
      * MP2 total energy                      = -109.364799913994602
      * CCSD total energy                     = -109.360777824601556
*** Psi4 exiting successfully. Buy a developer a beer!
