                               Psi4 1.2a1.dev939

  ==> Input File <==

--------------------------------------------------------------------------
# Any line starting with the # character is a comment line
memory 250000 mb
molecule molecule{
1 2
P         -0.0333080229        0.0000000000        0.0000001010
H          0.3411822908        1.1617449213       -0.6707361931
H          0.3411831569        0.0000000000        1.3414692835
H          0.3411822908       -1.1617449213       -0.6707361931
}

set {
  reference uhf
  basis aug-cc-pv(6+d)z
  scf_type OUT_OF_CORE
  freeze_core true
}

energy('ccsd')
--------------------------------------------------------------------------

    Molecular point group: cs

    Geometry (in Angstrom), charge = 1, multiplicity = 2:

       Center              X                  Y                   Z               Mass
    ------------   -----------------  -----------------  -----------------  -----------------
           P          0.033304559993     0.000000100960     0.000000000000    30.973761629000
           H         -0.341185753707    -0.670736193140     1.161744921300     1.007825032070
           H         -0.341186619807     1.341469283460     0.000000000000     1.007825032070
           H         -0.341185753707    -0.670736193140    -1.161744921300     1.007825032070

  Charge       = 1
  Multiplicity = 2
  Basis Set: AUG-CC-PV(6+D)Z
    Blend: AUG-CC-PV(6+D)Z

    Orbital Energies (a.u.)
    -----------------------

    Alpha Occupied:

       1Ap   -80.296242     2Ap    -7.838045     3Ap    -5.745257
       1App   -5.729498     4Ap    -5.729498     5Ap    -1.191207
       6Ap    -0.857248     2App   -0.857248     7Ap    -0.713495

    Alpha Virtual:

       8Ap    -0.130736     3App   -0.105901     9Ap    -0.105901
      10Ap    -0.089488    11Ap    -0.081268     4App   -0.081268
      12Ap    -0.072783    13Ap    -0.049563     5App   -0.049563
      14Ap    -0.037782     6App   -0.027075    15Ap    -0.027075
      16Ap     0.014634     7App    0.014634    17Ap     0.023272
      18Ap     0.039092     8App    0.047574    19Ap     0.047575
       9App    0.049168    20Ap     0.056264    10App    0.056264
      21Ap     0.069790    22Ap     0.071669    11App    0.071669
      23Ap     0.075718    24Ap     0.098049    12App    0.116650
      25Ap     0.116650    13App    0.156879    26Ap     0.156879
      27Ap     0.187500    14App    0.210247    28Ap     0.210247
      29Ap     0.224033    15App    0.237524    16App    0.243699
      30Ap     0.243699    17App    0.256672    31Ap     0.256672
      32Ap     0.266085    18App    0.266085    33Ap     0.276999
      19App    0.281636    34Ap     0.310942    20App    0.310943
      35Ap     0.332665    21App    0.332665    36Ap     0.334792
      37Ap     0.345929    38Ap     0.399146    22App    0.399827
      39Ap     0.399827    23App    0.413777    40Ap     0.413777
      41Ap     0.421474    42Ap     0.434823    24App    0.434823
      25App    0.439970    43Ap     0.501940    44Ap     0.520979
      26App    0.553204    45Ap     0.553204    46Ap     0.573524
      27App    0.586578    47Ap     0.586578    28App    0.590604
      29App    0.609951    48Ap     0.609951    49Ap     0.638002
      30App    0.638002    50Ap     0.654616    31App    0.656761
      51Ap     0.656762    32App    0.664450    52Ap     0.664450
      53Ap     0.694622    33App    0.697317    54Ap     0.697318
      34App    0.698032    55Ap     0.728685    56Ap     0.777383
      35App    0.777384    57Ap     0.858033    58Ap     0.894171
      36App    0.894171    37App    0.919726    59Ap     0.919726
      60Ap     0.943810    61Ap     0.945277    38App    0.945277
      39App    0.956859    62Ap     0.961765    63Ap     0.986659
      40App    0.986659    64Ap     1.029138    41App    1.029138
      65Ap     1.037744    42App    1.037744    43App    1.054094
      66Ap     1.068936    44App    1.108968    67Ap     1.113326
      45App    1.113326    68Ap     1.135811    69Ap     1.136510
      46App    1.136510    70Ap     1.157053    71Ap     1.165491
      47App    1.165491    48App    1.185045    72Ap     1.229703
      73Ap     1.231124    49App    1.231124    74Ap     1.286508
      50App    1.286508    75Ap     1.406565    76Ap     1.459320
      77Ap     1.490467    51App    1.492223    78Ap     1.492224
      52App    1.518673    53App    1.527706    79Ap     1.527706
      80Ap     1.539088    81Ap     1.556093    54App    1.556093
      55App    1.576682    82Ap     1.576682    83Ap     1.607811
      56App    1.618368    84Ap     1.618368    57App    1.644624
      85Ap     1.644624    86Ap     1.692648    58App    1.718815
      59App    1.726539    87Ap     1.726539    88Ap     1.773950
      60App    1.773950    61App    1.808959    89Ap     1.808959
      90Ap     1.814921    91Ap     1.866824    62App    1.868628
      92Ap     1.868628    63App    1.886029    64App    1.899825
      93Ap     1.899825    65App    1.995148    94Ap     2.020695
      66App    2.020695    95Ap     2.027205    67App    2.042291
      96Ap     2.042291    97Ap     2.104780    98Ap     2.139204
      99Ap     2.146056    68App    2.146058   100Ap     2.188193
      69App    2.188194   101Ap     2.219263    70App    2.219264
      71App    2.242435    72App    2.260144   102Ap     2.260145
      73App    2.320348   103Ap     2.320605    74App    2.320606
     104Ap     2.330040   105Ap     2.331359    75App    2.379531
     106Ap     2.379531   107Ap     2.400107    76App    2.400107
     108Ap     2.413460    77App    2.428938   109Ap     2.443930
      78App    2.443930   110Ap     2.490035    79App    2.525357
     111Ap     2.525357   112Ap     2.550202    80App    2.550203
      81App    2.593612   113Ap     2.660226   114Ap     2.687068
      82App    2.687069   115Ap     2.688970   116Ap     2.746492
      83App    2.790563   117Ap     2.790564    84App    2.806102
     118Ap     2.883251    85App    2.883251   119Ap     2.924067
      86App    2.924068   120Ap     2.930184   121Ap     2.963232
      87App    2.963232   122Ap     3.056296    88App    3.056298
      89App    3.096608   123Ap     3.164103    90App    3.169259
      91App    3.280050   124Ap     3.280051   125Ap     3.316037
      92App    3.364022   126Ap     3.364022   127Ap     3.392302
      93App    3.392617   128Ap     3.430784    94App    3.430784
     129Ap     3.482690    95App    3.498378   130Ap     3.498378
      96App    3.523728   131Ap     3.523728    97App    3.552618
     132Ap     3.552618   133Ap     3.584782    98App    3.647920
     134Ap     3.662052    99App    3.666322   135Ap     3.666322
     100App    3.752312   136Ap     3.752312   101App    3.767982
     137Ap     3.767982   138Ap     3.769210   139Ap     3.787499
     102App    3.825063   140Ap     3.825064   141Ap     3.875564
     103App    3.883140   142Ap     3.883141   104App    3.890366
     143Ap     3.906885   105App    3.906886   106App    4.057778
     144Ap     4.057779   145Ap     4.096334   107App    4.096335
     146Ap     4.109425   147Ap     4.136455   108App    4.136456
     148Ap     4.155285   109App    4.214418   149Ap     4.221650
     110App    4.221650   150Ap     4.269988   151Ap     4.328773
     111App    4.328773   112App    4.370639   113App    4.428890
     152Ap     4.428890   153Ap     4.465752   114App    4.465755
     154Ap     4.513069   115App    4.521481   155Ap     4.522441
     116App    4.522442   156Ap     4.579572   157Ap     4.582433
     117App    4.582433   158Ap     4.681902   159Ap     4.698971
     118App    4.698973   119App    4.809050   160Ap     4.853729
     120App    4.853731   121App    4.969075   161Ap     5.040023
     122App    5.040023   162Ap     5.041552   163Ap     5.067760
     123App    5.067760   164Ap     5.099808   165Ap     5.131113
     166Ap     5.183721   124App    5.183721   125App    5.212613
     167Ap     5.238689   126App    5.238690   168Ap     5.263358
     127App    5.263358   169Ap     5.273566   170Ap     5.298529
     128App    5.298530   171Ap     5.316769   172Ap     5.348968
     129App    5.348969   130App    5.352645   173Ap     5.367426
     131App    5.367427   174Ap     5.378877   132App    5.414456
     175Ap     5.414456   133App    5.440334   176Ap     5.485182
     134App    5.485184   135App    5.542900   136App    5.605222
     177Ap     5.605222   178Ap     5.627905   137App    5.627906
     179Ap     5.663481   138App    5.695446   180Ap     5.754182
     181Ap     5.773022   139App    5.773024   182Ap     5.939755
     140App    5.939757   183Ap     5.940259   184Ap     6.008805
     141App    6.162643   185Ap     6.162646   186Ap     6.190652
     142App    6.190653   187Ap     6.472329   188Ap     6.489755
     143App    6.489758   144App    6.527785   189Ap     6.602861
     190Ap     6.611830   145App    6.611832   146App    6.733000
     191Ap     6.842347   147App    6.842349   192Ap     6.934172
     193Ap     6.972074   148App    7.060468   194Ap     7.060469
     195Ap     7.098642   149App    7.098642   196Ap     7.109268
     150App    7.207215   197Ap     7.207217   151App    7.215169
     152App    7.300989   198Ap     7.368897   153App    7.368898
     199Ap     7.385868   200Ap     7.434002   154App    7.434003
     201Ap     7.441019   155App    7.457290   202Ap     7.523976
     156App    7.523977   157App    7.560020   158App    7.576766
     203Ap     7.576766   204Ap     7.594377   159App    7.629764
     205Ap     7.629766   206Ap     7.650493   160App    7.666113
     207Ap     7.666113   161App    7.820773   208Ap     7.820775
     209Ap     7.856619   162App    7.874800   210Ap     7.874801
     211Ap     7.983169   163App    7.983169   212Ap     8.041868
     164App    8.041871   213Ap     8.159627   165App    8.194142
     214Ap     8.194146   166App    8.215205   167App    8.230740
     215Ap     8.230740   216Ap     8.289490   217Ap     8.388468
     218Ap     8.475429   168App    8.475430   219Ap     8.738231
     169App    8.738233   220Ap     8.920410   221Ap     8.922428
     170App    8.922428   171App    9.076746   222Ap     9.138816
     172App    9.138821   173App    9.243940   223Ap     9.334966
     174App    9.377800   224Ap     9.406680   175App    9.406683
     225Ap     9.649366   176App    9.649369   226Ap     9.674289
     227Ap     9.792713   177App    9.841337   228Ap     9.841338
     229Ap     9.970128   178App    9.970130   179App    9.997389
     230Ap     9.997390   231Ap    10.001019   232Ap    10.041503
     180App   10.041508   233Ap    10.100484   181App   10.103765
     234Ap    10.103765   182App   10.143073   183App   10.182113
     235Ap    10.182113   236Ap    10.307905   184App   10.310676
     185App   10.465424   237Ap    10.465425   186App   10.532923
     238Ap    10.532923   239Ap    10.661717   187App   10.747296
     240Ap    10.747297   241Ap    10.817211   188App   10.820222
     242Ap    10.820224   189App   10.832988   243Ap    10.851947
     244Ap    10.927768   190App   10.927769   245Ap    10.999667
     246Ap    11.030373   191App   11.030373   192App   11.049179
     247Ap    11.239199   193App   11.239200   194App   11.518913
     248Ap    11.821184   195App   11.821189   249Ap    11.962899
     250Ap    12.416922   251Ap    12.523535   196App   12.523537
     197App   12.571312   252Ap    12.883684   198App   12.883687
     253Ap    12.979897   199App   12.979898   254Ap    13.379783
     255Ap    13.588496   200App   13.588496   201App   13.648363
     256Ap    13.648370   257Ap    13.880437   202App   13.898878
     258Ap    15.536114   259Ap    15.817537   203App   15.817545
     260Ap    17.261238   261Ap    17.261262   204App   17.261263
     205App   17.269548   262Ap    17.269945   206App   17.269945
     263Ap    17.391189   207App   17.391190   208App   17.398256
     264Ap    17.399652   209App   17.443357   265Ap    17.443357
     266Ap    17.491273   210App   17.491274   267Ap    17.562673
     268Ap    17.620100   211App   17.620101   212App   17.739643
     269Ap    17.823913   213App   17.823915   214App   17.869013
     270Ap    18.024172   215App   18.024175   271Ap    18.105524
     272Ap    18.359337   216App   18.437726   273Ap    18.437727
     274Ap    18.468038   217App   18.520820   275Ap    18.557392
     218App   18.557393   219App   18.737607   276Ap    18.737610
     277Ap    20.118595   220App   20.118595   221App   20.137475
     278Ap    20.175631   222App   20.183989   279Ap    20.183990
     223App   20.458687   280Ap    20.458691   224App   20.649520
     281Ap    20.649522   282Ap    20.687390   225App   20.886515
     283Ap    21.068846   284Ap    21.126688   226App   21.126690
     227App   21.156651   285Ap    21.170153   228App   21.170155
     286Ap    21.234418   287Ap    21.415906   288Ap    21.443237
     229App   21.443238   230App   21.512098   231App   21.519022
     289Ap    21.519023   290Ap    21.586522   232App   21.586523
     291Ap    22.501909   233App   22.829730   292Ap    22.829731
     293Ap    22.989238   234App   22.989241   294Ap    23.101709
     235App   23.212624   295Ap    23.254662   236App   23.254669
     237App   23.953825   296Ap    23.953828   297Ap    23.963211
     238App   23.982398   298Ap    23.982398   239App   24.098005
     299Ap    24.140799   300Ap    24.209027   240App   24.209028
     301Ap    24.330366   241App   24.330366   302Ap    24.384585
     242App   24.441325   303Ap    24.441326   243App   24.448652
     244App   24.522335   304Ap    24.522335   305Ap    24.530514
     245App   24.645254   306Ap    24.645255   246App   24.706346
     307Ap    24.727079   308Ap    24.753622   247App   24.753624
     309Ap    24.968312   248App   24.968312   249App   24.969569
     310Ap    25.208438   250App   25.294871   311Ap    25.294872
     251App   26.488655   312Ap    26.488656   313Ap    26.633068
     314Ap    27.687468   252App   27.687475   315Ap    28.962990
     253App   33.074860   316Ap    33.074866   317Ap    34.616902
     254App   34.750586   318Ap    34.750586   255App   34.820696
     319Ap    34.820698   256App   35.032676   320Ap    36.350980
     321Ap    36.755974   257App   36.755982   322Ap   216.716642

    Beta Occupied:

       1Ap   -80.286564     2Ap    -7.826290     1App   -5.723330
       3Ap    -5.723330     4Ap    -5.709535     5Ap    -1.122965
       6Ap    -0.848440     2App   -0.848439

    Beta Virtual:

       7Ap    -0.254290     8Ap    -0.123394     3App   -0.093983
       9Ap    -0.093982    10Ap    -0.078752     4App   -0.078752
      11Ap    -0.069347    12Ap    -0.059945    13Ap    -0.038953
       5App   -0.038952    14Ap    -0.033542     6App   -0.022224
      15Ap    -0.022224     7App    0.015758    16Ap     0.015759
      17Ap     0.027231     8App    0.048560    18Ap     0.048560
       9App    0.049173    19Ap     0.056883    20Ap     0.057581
      10App    0.057581    21Ap     0.077072    22Ap     0.085463
      23Ap     0.090430    11App    0.090430    24Ap     0.107643
      12App    0.119413    25Ap     0.119413    26Ap     0.160342
      13App    0.160342    27Ap     0.192460    14App    0.217336
      28Ap     0.217337    29Ap     0.226126    15App    0.237539
      16App    0.247378    30Ap     0.247378    17App    0.259969
      31Ap     0.259969    32Ap     0.269223    18App    0.269223
      19App    0.281961    33Ap     0.292658    34Ap     0.318217
      20App    0.318217    35Ap     0.336719    21App    0.336719
      36Ap     0.339583    37Ap     0.356197    22App    0.402123
      38Ap     0.402123    23App    0.415924    39Ap     0.415924
      40Ap     0.419111    41Ap     0.426413    42Ap     0.437142
      24App    0.437142    25App    0.440174    43Ap     0.505573
      44Ap     0.542769    45Ap     0.560415    26App    0.560415
      46Ap     0.576402    27App    0.590992    28App    0.592274
      47Ap     0.592274    29App    0.612302    48Ap     0.612302
      49Ap     0.642489    30App    0.642489    50Ap     0.656466
      31App    0.663102    51Ap     0.663103    32App    0.673076
      52Ap     0.673076    33App    0.699779    34App    0.711221
      53Ap     0.711221    54Ap     0.711344    55Ap     0.748600
      56Ap     0.784390    35App    0.784391    57Ap     0.863415
      58Ap     0.897090    36App    0.897090    37App    0.922692
      59Ap     0.922692    60Ap     0.947695    38App    0.947695
      61Ap     0.952850    39App    0.957174    62Ap     0.969938
      63Ap     0.988302    40App    0.988302    64Ap     1.030693
      41App    1.030694    65Ap     1.039273    42App    1.039273
      43App    1.055085    66Ap     1.071278    44App    1.109616
      67Ap     1.116769    45App    1.116769    68Ap     1.137288
      69Ap     1.140527    46App    1.140527    70Ap     1.158164
      71Ap     1.171618    47App    1.171618    48App    1.186172
      72Ap     1.236745    49App    1.236745    73Ap     1.238678
      74Ap     1.287723    50App    1.287723    75Ap     1.420081
      76Ap     1.474125    51App    1.499754    77Ap     1.499755
      78Ap     1.508390    52App    1.523397    53App    1.534950
      79Ap     1.534950    80Ap     1.547001    81Ap     1.564014
      54App    1.564014    55App    1.581692    82Ap     1.581692
      83Ap     1.617384    56App    1.624776    84Ap     1.624776
      57App    1.658812    85Ap     1.658812    86Ap     1.701749
      58App    1.723511    59App    1.730025    87Ap     1.730026
      88Ap     1.779062    60App    1.779062    61App    1.812065
      89Ap     1.812066    90Ap     1.824959    62App    1.871970
      91Ap     1.871970    92Ap     1.878356    63App    1.886949
      64App    1.908778    93Ap     1.908778    65App    1.995621
      94Ap     2.026314    66App    2.026315    95Ap     2.031477
      67App    2.043886    96Ap     2.043886    97Ap     2.108980
      98Ap     2.148276    99Ap     2.153133    68App    2.153134
     100Ap     2.193631    69App    2.193632   101Ap     2.224284
      70App    2.224285    71App    2.243994    72App    2.262130
     102Ap     2.262130    73App    2.321183   103Ap     2.322361
      74App    2.322361   104Ap     2.332890   105Ap     2.335008
      75App    2.381758   106Ap     2.381758   107Ap     2.401279
      76App    2.401279   108Ap     2.414231    77App    2.430546
     109Ap     2.444582    78App    2.444582   110Ap     2.493005
      79App    2.526358   111Ap     2.526358   112Ap     2.553191
      80App    2.553191    81App    2.594056   113Ap     2.667150
     114Ap     2.689431    82App    2.689431   115Ap     2.692488
     116Ap     2.752688    83App    2.794752   117Ap     2.794754
      84App    2.810000   118Ap     2.885669    85App    2.885669
     119Ap     2.926263    86App    2.926264   120Ap     2.940010
     121Ap     2.969010    87App    2.969011   122Ap     3.061302
      88App    3.061304    89App    3.100140    90App    3.170153
     123Ap     3.183794    91App    3.288971   124Ap     3.288972
     125Ap     3.325103    92App    3.375364   126Ap     3.375364
      93App    3.396375   127Ap     3.400516   128Ap     3.434535
      94App    3.434536   129Ap     3.498981    95App    3.503902
     130Ap     3.503902    96App    3.530262   131Ap     3.530262
      97App    3.559685   132Ap     3.559685   133Ap     3.592398
      98App    3.659754   134Ap     3.672209    99App    3.674882
     135Ap     3.674882   100App    3.759384   136Ap     3.759385
     137Ap     3.774233   101App    3.774283   138Ap     3.774284
     139Ap     3.790396   102App    3.833979   140Ap     3.833980
     141Ap     3.884577   103App    3.888706   142Ap     3.888707
     104App    3.892039   143Ap     3.913500   105App    3.913501
     106App    4.062287   144Ap     4.062288   145Ap     4.101185
     107App    4.101185   146Ap     4.117770   147Ap     4.142393
     108App    4.142394   148Ap     4.158777   109App    4.216051
     149Ap     4.226945   110App    4.226946   150Ap     4.275697
     151Ap     4.335347   111App    4.335348   112App    4.372043
     113App    4.431903   152Ap     4.431903   153Ap     4.467164
     114App    4.467166   154Ap     4.516750   115App    4.523469
     155Ap     4.524387   116App    4.524387   156Ap     4.582698
     157Ap     4.585436   117App    4.585436   158Ap     4.690207
     159Ap     4.701338   118App    4.701340   119App    4.810935
     160Ap     4.855602   120App    4.855604   121App    4.971473
     161Ap     5.041578   122App    5.041578   162Ap     5.045340
     163Ap     5.069486   123App    5.069487   164Ap     5.102107
     165Ap     5.133336   166Ap     5.185755   124App    5.185755
     125App    5.213293   167Ap     5.240625   126App    5.240625
     168Ap     5.264853   127App    5.264853   169Ap     5.275183
     170Ap     5.299104   128App    5.299106   171Ap     5.320259
     172Ap     5.351018   129App    5.351019   130App    5.355270
     173Ap     5.370806   131App    5.370807   174Ap     5.389000
     175Ap     5.418174   132App    5.418174   133App    5.441593
     176Ap     5.488753   134App    5.488754   135App    5.544062
     136App    5.606738   177Ap     5.606738   178Ap     5.633370
     137App    5.633371   179Ap     5.667144   138App    5.696876
     180Ap     5.755963   181Ap     5.777367   139App    5.777369
     182Ap     5.943042   183Ap     5.943151   140App    5.943153
     184Ap     6.012617   141App    6.164858   185Ap     6.164861
     186Ap     6.194422   142App    6.194423   187Ap     6.478634
     188Ap     6.493729   143App    6.493732   144App    6.530370
     189Ap     6.610496   190Ap     6.614995   145App    6.614997
     146App    6.733741   191Ap     6.844747   147App    6.844749
     192Ap     6.939648   193Ap     6.980937   148App    7.067167
     194Ap     7.067168   195Ap     7.106990   149App    7.106990
     196Ap     7.123838   150App    7.209365   197Ap     7.209366
     151App    7.219894   152App    7.308926   198Ap     7.370959
     153App    7.370960   199Ap     7.389236   200Ap     7.438109
     154App    7.438109   201Ap     7.449835   155App    7.459328
     202Ap     7.527053   156App    7.527054   157App    7.563643
     158App    7.582255   203Ap     7.582255   204Ap     7.601561
     159App    7.635979   205Ap     7.635981   206Ap     7.653527
     160App    7.675220   207Ap     7.675220   161App    7.830034
     208Ap     7.830035   209Ap     7.865172   162App    7.879843
     210Ap     7.879844   163App    7.988764   211Ap     7.988764
     212Ap     8.048487   164App    8.048490   213Ap     8.167930
     165App    8.198318   214Ap     8.198322   166App    8.218348
     167App    8.237830   215Ap     8.237831   216Ap     8.294827
     217Ap     8.395451   218Ap     8.480551   168App    8.480552
     219Ap     8.743566   169App    8.743568   220Ap     8.925841
     170App    8.925841   221Ap     8.926623   171App    9.078987
     222Ap     9.141157   172App    9.141162   173App    9.246975
     223Ap     9.340696   174App    9.380354   224Ap     9.410285
     175App    9.410288   225Ap     9.650579   176App    9.650582
     226Ap     9.677153   227Ap     9.794647   177App    9.843164
     228Ap     9.843164   229Ap     9.974658   178App    9.974659
     179App    9.999755   230Ap     9.999757   231Ap    10.004140
     232Ap    10.041907   180App   10.041911   233Ap    10.104568
     181App   10.105791   234Ap    10.105791   182App   10.144290
     183App   10.184346   235Ap    10.184346   236Ap    10.309752
     184App   10.311185   185App   10.467200   237Ap    10.467201
     186App   10.534999   238Ap    10.534999   239Ap    10.664459
     187App   10.748662   240Ap    10.748663   241Ap    10.819953
     188App   10.820943   242Ap    10.820945   189App   10.834041
     243Ap    10.854493   244Ap    10.929055   190App   10.929056
     245Ap    11.000476   246Ap    11.032074   191App   11.032074
     192App   11.049883   247Ap    11.239989   193App   11.239990
     194App   11.519602   248Ap    11.821899   195App   11.821904
     249Ap    11.965459   250Ap    12.419233   251Ap    12.526577
     196App   12.526579   197App   12.572007   252Ap    12.884570
     198App   12.884572   253Ap    12.981360   199App   12.981361
     254Ap    13.380048   255Ap    13.588870   200App   13.588870
     201App   13.648336   256Ap    13.648343   257Ap    13.885696
     202App   13.898700   258Ap    15.537004   259Ap    15.818145
     203App   15.818153   260Ap    17.261386   261Ap    17.261430
     204App   17.261430   205App   17.269676   262Ap    17.270121
     206App   17.270122   263Ap    17.391415   207App   17.391416
     208App   17.398502   264Ap    17.399924   209App   17.443461
     265Ap    17.443461   266Ap    17.491594   210App   17.491595
     267Ap    17.563094   268Ap    17.620313   211App   17.620314
     212App   17.740004   269Ap    17.824270   213App   17.824272
     214App   17.869469   270Ap    18.024597   215App   18.024600
     271Ap    18.106045   272Ap    18.359932   216App   18.438067
     273Ap    18.438068   274Ap    18.468375   217App   18.520717
     275Ap    18.557888   218App   18.557889   219App   18.737702
     276Ap    18.737705   277Ap    20.118625   220App   20.118626
     221App   20.137537   278Ap    20.175687   222App   20.184042
     279Ap    20.184043   223App   20.458844   280Ap    20.458847
     224App   20.649574   281Ap    20.649576   282Ap    20.687598
     225App   20.886661   283Ap    21.069029   284Ap    21.126813
     226App   21.126815   227App   21.156836   285Ap    21.170340
     228App   21.170342   286Ap    21.235006   287Ap    21.416099
     288Ap    21.443398   229App   21.443399   230App   21.512020
     231App   21.518964   289Ap    21.518965   290Ap    21.586584
     232App   21.586585   291Ap    22.502033   233App   22.829646
     292Ap    22.829647   293Ap    22.989238   234App   22.989240
     294Ap    23.101758   235App   23.212638   295Ap    23.254563
     236App   23.254570   237App   23.953736   296Ap    23.953739
     297Ap    23.963151   238App   23.982359   298Ap    23.982359
     239App   24.097942   299Ap    24.141363   300Ap    24.208986
     240App   24.208986   301Ap    24.330514   241App   24.330515
     302Ap    24.384644   242App   24.441262   303Ap    24.441263
     243App   24.448650   244App   24.522348   304Ap    24.522349
     305Ap    24.530408   245App   24.645548   306Ap    24.645549
     246App   24.706154   307Ap    24.727697   308Ap    24.753779
     247App   24.753781   309Ap    24.968450   248App   24.968451
     249App   24.969445   310Ap    25.210221   250App   25.295176
     311Ap    25.295177   251App   26.497893   312Ap    26.497894
     313Ap    26.644803   314Ap    27.691816   252App   27.691822
     315Ap    28.979805   253App   33.077931   316Ap    33.077937
     317Ap    34.616773   254App   34.750447   318Ap    34.750447
     255App   34.820465   319Ap    34.820468   256App   35.032430
     320Ap    36.350844   321Ap    36.755884   257App   36.755893

  @UHF Final Energy:  -342.18097062899051

   => Energetics <=

    Nuclear Repulsion Energy =             17.7809321703887342
    One-Electron Energy =                -502.8771746301962935
    Two-Electron Energy =                 142.9152718308170904
    Total Energy =                       -342.1809706289905080
      * MP2 total energy                      = -342.326084688287608
      * CCSD total energy                     = -342.348745731650354
*** Psi4 exiting successfully. Buy a developer a beer!
