                               Psi4 1.2a1.dev938

  ==> Input File <==

--------------------------------------------------------------------------
# Any line starting with the # character is a comment line
memory 250000 mb
molecule molecule{
-1 2
N          0.0000000000        0.0000000000        0.0696479824
H          0.0000000000        0.0000000000       -0.9678536371
}

set {
  reference uhf
  basis aug-cc-pv(d+d)z
  scf_type OUT_OF_CORE
  freeze_core true
}

energy('ccsd')
--------------------------------------------------------------------------

    Molecular point group: c2v

    Geometry (in Angstrom), charge = -1, multiplicity = 2:

       Center              X                  Y                   Z               Mass
    ------------   -----------------  -----------------  -----------------  -----------------
           N          0.000000000000     0.000000000000     0.069657393630    14.003074004780
           H          0.000000000000     0.000000000000    -0.967844225870     1.007825032070

  Charge       = -1
  Multiplicity = 2
  Basis Set: AUG-CC-PV(D+D)Z
    Blend: AUG-CC-PV(D+D)Z

    Orbital Energies (a.u.)
    -----------------------

    Alpha Occupied:

       1A1   -15.271828     2A1    -0.767014     3A1    -0.223008
       1B2    -0.161706     1B1    -0.091585

    Alpha Virtual:

       4A1     0.186580     5A1     0.351372     2B2     0.357780
       2B1     0.376454     6A1     0.415467     7A1     0.541029
       3B2     0.616434     3B1     0.630570     8A1     0.844957
       9A1     0.960082     1A2     0.963667    10A1     0.995686
       4B2     1.101340     4B1     1.127371    11A1     1.407041
       5B2     1.447672     5B1     1.495274    12A1     1.628620
       6B2     2.180781     6B1     2.199490    13A1     2.431484
      14A1     2.675796     2A2     2.793483    15A1     2.795690
       7B2     2.995199     7B1     3.034941    16A1     3.609038

    Beta Occupied:

       1A1   -15.237321     2A1    -0.627398     3A1    -0.176432
       1B1    -0.006275

    Beta Virtual:

       4A1     0.185789     1B2     0.307923     5A1     0.353350
       2B1     0.394395     6A1     0.420965     2B2     0.508860
       7A1     0.546416     3B1     0.630181     3B2     0.656105
       8A1     0.860384     9A1     0.991520     1A2     0.995272
      10A1     1.009161     4B1     1.131610     4B2     1.141791
      11A1     1.421599     5B1     1.539126     5B2     1.588068
      12A1     1.653793     6B2     2.197951     6B1     2.199463
      13A1     2.457526    14A1     2.705993     2A2     2.886519
      15A1     2.887201     7B1     3.060994     7B2     3.067708
      16A1     3.631102

    Final Occupation by Irrep:
             A1    A2    B1    B2
    DOCC [     3,    0,    1,    0 ]
    SOCC [     0,    0,    0,    1 ]

  Energy converged.

  @UHF Final Energy:   -54.91770470438055

   => Energetics <=

    Nuclear Repulsion Energy =              3.5703466775455959
    One-Electron Energy =                 -84.4135357872904137
    Two-Electron Energy =                  25.9254844053642621
    PCM Polarization Energy =               0.0000000000000000
    Total Energy =                        -54.9177047043805544

    Alert: EFP and PCM quantities not currently incorporated into SCF psivars.
  UHF NO Occupations:
  HONO-2 :    3 A1 1.9967172
  HONO-1 :    1 B1 1.9822861
  HONO-0 :    1 B2 1.0000000
  LUNO+0 :    2 B1 0.0177139
  LUNO+1 :    4 A1 0.0032828
  LUNO+2 :    5 A1 0.0015471
  LUNO+3 :    6 A1 0.0000005

Properties will be evaluated at   0.000000,   0.000000,   0.000000 Bohr

Properties computed using the SCF density matrix

  Nuclear Dipole Moment: (a.u.)
     X:     0.0000      Y:     0.0000      Z:    -0.9075

  Electronic Dipole Moment: (a.u.)
     X:     0.0000      Y:     0.0000      Z:     0.3936

  Dipole Moment: (a.u.)
     X:     0.0000      Y:     0.0000      Z:    -0.5139     Total:     0.5139

  Dipole Moment: (Debye)
     X:     0.0000      Y:     0.0000      Z:    -1.3062     Total:     1.3062

*** tstop() called on cqc05 at Thu Aug 20 19:54:26 2020
Module time:
	user time   =       0.37 seconds =       0.01 minutes
	system time =       0.00 seconds =       0.00 minutes
	total time  =          0 seconds =       0.00 minutes
Total time:
	user time   =       0.37 seconds =       0.01 minutes
	system time =       0.00 seconds =       0.00 minutes
	total time  =          0 seconds =       0.00 minutes

*** tstart() called on cqc05
*** at Thu Aug 20 19:54:26 2020

	Wfn Parameters:
	--------------------
	Wavefunction         = CCSD
	Number of irreps     = 4
	Number of MOs        = 32
	Number of active MOs = 31
	AO-Basis             = NONE
	Semicanonical        = false
	Reference            = UHF
	Print Level          = 1

	IRREP	# MOs	# FZDC	# DOCC	# SOCC	# VIRT	# FZVR
	-----	-----	------	------	------	------	------
	 A1	   16	    1	    2	    0	    13	    0
	 A2	   2	    0	    0	    0	    2	    0
	 B1	   7	    0	    1	    0	    6	    0
	 B2	   7	    0	    0	    1	    6	    0
	Transforming integrals...
	IWL integrals will be deleted.
	(OO|OO)...
	Presorting SO-basis two-electron integrals.
	Sorting File: SO Ints (nn|nn) nbuckets = 1
	Transforming the one-electron integrals and constructing Fock matrices
	Starting AA/AB first half-transformation.
	Sorting AA/AB half-transformed integrals.
	Starting BB first half-transformation.
	Sorting BB half-transformed integrals.
	First half integral transformation complete.
	Starting AA second half-transformation.
	Starting AB second half-transformation.
	Starting BB second half-transformation.
	Two-electron integral transformation complete.
	(OO|OV)...
	Starting AA second half-transformation.
	Starting AB second half-transformation.
	Starting BB second half-transformation.
	Two-electron integral transformation complete.
	(OO|VV)...
	Starting AA second half-transformation.
	Starting AB second half-transformation.
	Starting BB second half-transformation.
	Two-electron integral transformation complete.
	(OV|OO)...
	Starting AA/AB first half-transformation.
	Sorting AA/AB half-transformed integrals.
	Starting BB first half-transformation.
	Sorting BB half-transformed integrals.
	First half integral transformation complete.
	Starting AA second half-transformation.
	Starting AB second half-transformation.
	Starting BB second half-transformation.
	Two-electron integral transformation complete.
	(OV|OV)...
	Starting AA second half-transformation.
	Starting AB second half-transformation.
	Starting BB second half-transformation.
	Two-electron integral transformation complete.
	(OV|VV)...
	Starting AA second half-transformation.
	Starting AB second half-transformation.
	Starting BB second half-transformation.
	Two-electron integral transformation complete.
	(VV|OO)...
	Starting AA/AB first half-transformation.
	Sorting AA/AB half-transformed integrals.
	Starting BB first half-transformation.
	Sorting BB half-transformed integrals.
	First half integral transformation complete.
	Starting AA second half-transformation.
	Starting AB second half-transformation.
	Starting BB second half-transformation.
	Two-electron integral transformation complete.
	(VV|OV)...
	Starting AA second half-transformation.
	Starting AB second half-transformation.
	Starting BB second half-transformation.
	Two-electron integral transformation complete.
	(VV|VV)...
	Starting AA second half-transformation.
	Starting AB second half-transformation.
	Starting BB second half-transformation.
	Two-electron integral transformation complete.
	Frozen core energy     =    -45.75251380436296

	Size of irrep 0 of <AB|CD> integrals:      0.012 (MW) /      0.095 (MB)
	Size of irrep 1 of <AB|CD> integrals:      0.004 (MW) /      0.031 (MB)
	Size of irrep 2 of <AB|CD> integrals:      0.008 (MW) /      0.065 (MB)
	Size of irrep 3 of <AB|CD> integrals:      0.008 (MW) /      0.065 (MB)
	Total:                                     0.032 (MW) /      0.255 (MB)

	Size of irrep 0 of <ab|cd> integrals:      0.013 (MW) /      0.106 (MB)
	Size of irrep 1 of <ab|cd> integrals:      0.005 (MW) /      0.037 (MB)
	Size of irrep 2 of <ab|cd> integrals:      0.008 (MW) /      0.068 (MB)
	Size of irrep 3 of <ab|cd> integrals:      0.011 (MW) /      0.085 (MB)
	Total:                                     0.037 (MW) /      0.295 (MB)

	Size of irrep 0 of <Ab|Cd> integrals:      0.063 (MW) /      0.504 (MB)
	Size of irrep 1 of <Ab|Cd> integrals:      0.017 (MW) /      0.135 (MB)
	Size of irrep 2 of <Ab|Cd> integrals:      0.033 (MW) /      0.265 (MB)
	Size of irrep 3 of <Ab|Cd> integrals:      0.037 (MW) /      0.298 (MB)
	Total:                                     0.150 (MW) /      1.202 (MB)

	Size of irrep 0 of <IA|BC> integrals:      0.009 (MW) /      0.074 (MB)
	Size of irrep 1 of <IA|BC> integrals:      0.002 (MW) /      0.016 (MB)
	Size of irrep 2 of <IA|BC> integrals:      0.005 (MW) /      0.039 (MB)
	Size of irrep 3 of <IA|BC> integrals:      0.005 (MW) /      0.039 (MB)
	Total:                                     0.021 (MW) /      0.168 (MB)

	Size of irrep 0 of <ia|bc> integrals:      0.008 (MW) /      0.066 (MB)
	Size of irrep 1 of <ia|bc> integrals:      0.001 (MW) /      0.012 (MB)
	Size of irrep 2 of <ia|bc> integrals:      0.005 (MW) /      0.037 (MB)
	Size of irrep 3 of <ia|bc> integrals:      0.003 (MW) /      0.026 (MB)
	Total:                                     0.018 (MW) /      0.141 (MB)

	Size of irrep 0 of <Ia|Bc> integrals:      0.010 (MW) /      0.078 (MB)
	Size of irrep 1 of <Ia|Bc> integrals:      0.002 (MW) /      0.018 (MB)
	Size of irrep 2 of <Ia|Bc> integrals:      0.005 (MW) /      0.039 (MB)
	Size of irrep 3 of <Ia|Bc> integrals:      0.006 (MW) /      0.045 (MB)
	Total:                                     0.023 (MW) /      0.180 (MB)

	Size of irrep 0 of <iA|bC> integrals:      0.008 (MW) /      0.064 (MB)
	Size of irrep 1 of <iA|bC> integrals:      0.001 (MW) /      0.010 (MB)
	Size of irrep 2 of <iA|bC> integrals:      0.005 (MW) /      0.036 (MB)
	Size of irrep 3 of <iA|bC> integrals:      0.003 (MW) /      0.022 (MB)
	Total:                                     0.017 (MW) /      0.133 (MB)

	Size of irrep 0 of tIjAb amplitudes:       0.001 (MW) /      0.010 (MB)
	Size of irrep 1 of tIjAb amplitudes:       0.000 (MW) /      0.001 (MB)
	Size of irrep 2 of tIjAb amplitudes:       0.001 (MW) /      0.006 (MB)
	Size of irrep 3 of tIjAb amplitudes:       0.000 (MW) /      0.003 (MB)
	Total:                                     0.002 (MW) /      0.020 (MB)

	Nuclear Rep. energy          =      3.57034667754560
	SCF energy                   =    -54.91770470438055
	One-electron energy          =    -23.41765740780344
	Two-electron (AA) energy     =      2.91203632960266
	Two-electron (BB) energy     =      1.27140035093971
	Two-electron (AB) energy     =      6.49868314969791
	Two-electron energy          =     10.68211983024027
	Reference energy             =    -54.91770470438053

*** tstop() called on cqc05 at Thu Aug 20 19:54:26 2020
Module time:
	user time   =       0.05 seconds =       0.00 minutes
	system time =       0.03 seconds =       0.00 minutes
	total time  =          0 seconds =       0.00 minutes
Total time:
	user time   =       0.43 seconds =       0.01 minutes
	system time =       0.03 seconds =       0.00 minutes
	total time  =          0 seconds =       0.00 minutes

*** tstart() called on cqc05
*** at Thu Aug 20 19:54:26 2020

            **************************
            *                        *
            *        CCENERGY        *
            *                        *
            **************************

    Nuclear Rep. energy (wfn)     =    3.570346677545596
    SCF energy          (wfn)     =  -54.917704704380554
    Reference energy    (file100) =  -54.917704704380533

    Input parameters:
    -----------------
    Wave function   =     CCSD
    Reference wfn   =     UHF
    Brueckner       =     No
    Memory (Mbytes) =     250000.0
    Maxiter         =     50
    R_Convergence   =     1.0e-07
    E_Convergence   =     1.0e-06
    Restart         =     Yes
    DIIS            =     Yes
    AO Basis        =     NONE
    ABCD            =     NEW
    Cache Level     =     2
    Cache Type      =     LRU
    Print Level     =     1
    Num. of threads =     4
    # Amps to Print =     10
    Print MP2 Amps? =     No
    Analyze T2 Amps =     No
    Print Pair Ener =     No
    Local CC        =     No
    SCS-MP2         =     False
    SCSN-MP2        =     False
    SCS-CCSD        =     False

MP2 correlation energy -0.1681295220356810
                Solving CC Amplitude Equations
                ------------------------------
  Iter             Energy              RMS        T1Diag      D1Diag    New D1Diag    D2Diag
  ----     ---------------------    ---------   ----------  ----------  ----------   --------
     0        -0.168129522035681    0.000e+00    0.000000    0.000000    0.000000    0.000000
     1        -0.175743402032922    7.015e-02    0.022307    0.000000    0.000000    0.000000
     2        -0.180868985426609    2.578e-02    0.025363    0.000000    0.000000    0.000000
     3        -0.183398733858278    1.767e-02    0.033786    0.000000    0.000000    0.000000
     4        -0.183489429936434    7.650e-03    0.037579    0.000000    0.000000    0.000000
     5        -0.183498000516073    3.794e-03    0.039195    0.000000    0.000000    0.000000
     6        -0.183574686911495    1.763e-03    0.039694    0.000000    0.000000    0.000000
     7        -0.183601243058795    8.307e-04    0.039741    0.000000    0.000000    0.000000
     8        -0.183607784523569    3.754e-04    0.039714    0.000000    0.000000    0.000000
     9        -0.183611059006852    1.682e-04    0.039709    0.000000    0.000000    0.000000
    10        -0.183609334871597    6.964e-05    0.039703    0.000000    0.000000    0.000000
    11        -0.183609886254389    2.736e-05    0.039698    0.000000    0.000000    0.000000
    12        -0.183610144767587    1.020e-05    0.039699    0.000000    0.000000    0.000000
    13        -0.183610491034113    4.352e-06    0.039700    0.000000    0.000000    0.000000
    14        -0.183610587049760    1.706e-06    0.039700    0.000000    0.000000    0.000000
    15        -0.183610602220627    6.693e-07    0.039700    0.000000    0.000000    0.000000
    16        -0.183610594275648    3.484e-07    0.039700    0.000000    0.000000    0.000000
    17        -0.183610593085877    1.774e-07    0.039700    0.000000    0.000000    0.000000
    18        -0.183610593446618    6.766e-08    0.039700    0.000000    0.000000    0.000000
    18        -0.183610593446618    6.766e-08    0.039700    0.000000    0.000000    0.000000

    Iterations converged.

    CCSD corr. energy   =   -0.183610593446618
    PPL corr. energy    =    0.042461635372794
    OS PPL corr. energy =    0.035584077178035
    SS PPL corr. energy =    0.006877558194759
    Largest TIA Amplitudes:
              2  15        -0.0723133993
              3  21        -0.0533267940
              2  16        -0.0216272433
              3  22        -0.0192499661
              1   1         0.0174647965
              1   3         0.0123926718
              0   2         0.0116459482
              1   2        -0.0084533799
              1  10        -0.0061954350
              0   1        -0.0058083118

    Largest Tia Amplitudes:
              2  18         0.0206639869
              2  15         0.0127706313
              0   6        -0.0097713218
              0   3        -0.0092946177
              1   1        -0.0084702246
              1   7         0.0081285189
              2  17         0.0075575125
              1   8        -0.0070263665
              0  10        -0.0063902956
              1   3        -0.0059089417

    Largest TIJAB Amplitudes:
      3   2  21  15        -0.0295209393
      3   2  24  18        -0.0230874710
      3   2  13   5         0.0219732590
      2   1  16   3         0.0199624653
      3   2  24  15        -0.0191343816
      3   1  22   3         0.0185719779
      2   1  17   6        -0.0181331340
      3   1  24   7         0.0175020436
      2   1  15   1         0.0170880312
      3   2  21  18        -0.0165561415

    Largest Tijab Amplitudes:
      2   1  15   1        -0.0245685017
      2   1  16   3        -0.0242103186
      2   1  15   3        -0.0204313722
      2   1  17   5         0.0154044546
      2   1  16   5        -0.0145746189
      2   0  22  13         0.0143634543
      2   1  18   7        -0.0140239855
      2   1  15   7        -0.0130765344
      2   1  18   3        -0.0125939346
      2   0  15   2         0.0125651235

    Largest TIjAb Amplitudes:
      2   2  15  15        -0.0959488573
      3   2  21  15        -0.0537941427
      1   1   3   3         0.0525938419
      2   2  18  18        -0.0449414975
      3   2  15  22        -0.0434444449
      2   2  15  18        -0.0393246776
      2   2  18  15        -0.0390510249
      1   1   7   7         0.0381686400
      2   2  15  16        -0.0357490774
      2   2  16  15        -0.0325762027

    SCF energy       (wfn)                    =  -54.917704704380554
    Reference energy (file100)                =  -54.917704704380533

    Opposite-spin MP2 correlation energy      =   -0.126786833926355
    Same-spin MP2 correlation energy          =   -0.041342688109323
    MP2 correlation energy                    =   -0.168129522035681
      * MP2 total energy                      =  -55.085834226416218

    Opposite-spin CCSD correlation energy     =   -0.146378994133498
    Same-spin CCSD correlation energy         =   -0.037231601004504
    CCSD correlation energy                   =   -0.183610593446618
      * CCSD total energy                     =  -55.101315297827149

*** tstop() called on cqc05 at Thu Aug 20 19:54:28 2020
Module time:
	user time   =       0.32 seconds =       0.01 minutes
	system time =       0.25 seconds =       0.00 minutes
	total time  =          2 seconds =       0.03 minutes

*** Psi4 exiting successfully. Buy a developer a beer!
