                               Psi4 1.2a1.dev938

  ==> Input File <==

--------------------------------------------------------------------------
# Any line starting with the # character is a comment line
memory 250000 mb
molecule molecule{
-1 2
N          0.0000000000        0.0000000000        0.0696479824
H          0.0000000000        0.0000000000       -0.9678536371
}

set {
  reference uhf
  basis aug-cc-pv(5+d)z
  scf_type OUT_OF_CORE
  freeze_core true
}

energy('ccsd')
--------------------------------------------------------------------------

    Molecular point group: c2v

    Geometry (in Angstrom), charge = -1, multiplicity = 2:

       Center              X                  Y                   Z               Mass
    ------------   -----------------  -----------------  -----------------  -----------------
           N          0.000000000000     0.000000000000     0.069657393630    14.003074004780
           H          0.000000000000     0.000000000000    -0.967844225870     1.007825032070

  Charge       = -1
  Multiplicity = 2
  Basis Set: AUG-CC-PV(5+D)Z
    Blend: AUG-CC-PV(5+D)Z

    Orbital Energies (a.u.)
    -----------------------

    Alpha Occupied:

       1A1   -15.300491     2A1    -0.812235     3A1    -0.259217
       1B2    -0.204637     1B1    -0.153436

    Alpha Virtual:

       4A1     0.146297     5A1     0.228317     2B2     0.235885
       2B1     0.245873     6A1     0.291440     7A1     0.336249
       3B2     0.342136     3B1     0.350498     8A1     0.489936
       1A2     0.500862     9A1     0.502581    10A1     0.536221
       4B2     0.564884     4B1     0.578695    11A1     0.635929
       5B2     0.652618     5B1     0.672264    12A1     0.678586
       6B2     0.725478     6B1     0.738494     2A2     0.750613
      13A1     0.751320    14A1     0.891536     7B2     1.034660
       7B1     1.034699    15A1     1.046001     8B2     1.106602
      16A1     1.119671     8B1     1.122293     3A2     1.134130
      17A1     1.140929     9B2     1.151848     9B1     1.169526
      18A1     1.242183     4A2     1.286387    19A1     1.288930
      10B2     1.431800    20A1     1.431986    10B1     1.447822
      11B2     1.502752    11B1     1.502837     5A2     1.555702
      21A1     1.555799    12B2     1.557648    12B1     1.576985
      22A1     1.657087    23A1     1.723204    13B2     1.856652
      13B1     1.883892    24A1     2.085204     6A2     2.333716
      25A1     2.334120    14B2     2.401464    14B1     2.421338
       7A2     2.452887    26A1     2.452887    15B2     2.615237
      15B1     2.616186    16B2     2.622460    27A1     2.625150
      16B1     2.638551    28A1     2.681743    29A1     2.694045
       8A2     2.694223    17B2     2.697745    17B1     2.716735
      18B2     2.720051    30A1     2.723043    18B1     2.723780
       9A2     2.812643    31A1     2.814646    32A1     3.110189
      10A2     3.250382    33A1     3.250639    19B2     3.274595
      19B1     3.290820    11A2     3.337870    34A1     3.337870
      35A1     3.466393    20B2     3.577808    20B1     3.592626
      21B2     3.614083    21B1     3.614414    36A1     3.726981
      12A2     3.751415    37A1     3.754956    38A1     3.966005
      22B2     4.063637    22B1     4.095530    23B2     4.581980
      23B1     4.607159    39A1     4.631679    24B2     4.655437
      24B1     4.655445    25B2     5.065010    25B1     5.065010
      40A1     5.239489    13A2     5.241572    41A1     5.249812
      14A2     5.355494    42A1     5.355495    26B2     5.424799
      26B1     5.445094    27B2     5.712954    27B1     5.738236
      43A1     5.909044    15A2     5.911758    44A1     5.949574
      45A1     5.989159    16A2     6.000754    46A1     6.000765
      28B2     6.005984    28B1     6.006688    29B2     6.042852
      29B1     6.064176    17A2     6.076414    47A1     6.077513
      30B2     6.153477    30B1     6.153525    31B2     6.276766
      31B1     6.291727    48A1     6.349871    32B2     6.467132
      32B1     6.467139    18A2     6.518226    49A1     6.519271
      19A2     6.792885    50A1     6.792914    51A1     7.166908
      52A1     7.654968    33B2     7.777384    33B1     7.797852
      53A1     7.825193    20A2     8.158274    54A1     8.158593
      34B2     8.198216    34B1     8.221721    55A1     9.203634
      35B2     9.275158    35B1     9.296149    56A1    11.369334
      57A1    12.341959    21A2    12.342160    36B2    12.402702
      36B1    12.402734    37B2    12.575925    37B1    12.596629
      38B2    12.737061    38B1    12.737061    58A1    12.787681
      22A2    12.787681    59A1    12.956827    39B2    13.014594
      39B1    13.044609    23A2    13.512119    60A1    13.512119
      61A1    13.548563    40B2    13.649945    40B1    13.649946
      62A1    14.053815    41B2    14.084954    41B1    14.105086
      42B2    14.398783    42B1    14.398786    24A2    14.465953
      63A1    14.465959    64A1    14.642373    25A2    14.642654
      43B2    14.706381    43B1    14.715041    65A1    14.802046
      26A2    14.816829    66A1    14.822987    44B2    14.954764
      44B1    14.954767    27A2    14.989021    67A1    14.989021
      45B2    15.117710    45B1    15.117712    68A1    15.570471
      28A2    15.571212    69A1    15.698637    46B2    16.193130
      46B1    16.208875    70A1    16.394453    47B2    16.589264
      47B1    16.608697    71A1    16.912646    29A2    16.913140
      72A1    17.018877    48B2    17.963592    48B1    17.974606
      73A1    18.161164    30A2    18.161224    74A1    18.562730
      49B2    18.775349    49B1    18.796312    50B2    20.880975
      50B1    20.897163    75A1    22.487429    76A1    23.166494
      77A1    51.855929

    Beta Occupied:

       1A1   -15.256598     2A1    -0.640137     3A1    -0.201933
       1B1     0.020506

    Beta Virtual:

       4A1     0.142941     1B2     0.224939     5A1     0.226854
       2B1     0.260910     6A1     0.288727     2B2     0.330529
       7A1     0.333074     3B1     0.351019     3B2     0.420356
       8A1     0.492586     1A2     0.493560     9A1     0.498665
      10A1     0.532669     4B1     0.573627     4B2     0.578453
      11A1     0.639649    12A1     0.683694     5B1     0.700280
       5B2     0.713920     6B1     0.742082     2A2     0.748926
      13A1     0.749022     6B2     0.763092    14A1     0.909663
       7B1     1.034214     7B2     1.034219    15A1     1.062041
       8B2     1.114833     8B1     1.120689    16A1     1.124784
       3A2     1.142048    17A1     1.142923     9B1     1.173676
       9B2     1.176585    18A1     1.250411     4A2     1.324557
      19A1     1.324773    20A1     1.439613    10B2     1.453596
      10B1     1.455452    11B1     1.501642    11B2     1.501650
       5A2     1.555122    21A1     1.555182    12B1     1.598333
      12B2     1.601883    22A1     1.674448    23A1     1.725874
      13B1     1.913184    13B2     1.914253    24A1     2.102128
       6A2     2.343556    25A1     2.343613    14B2     2.424639
      14B1     2.429471     7A2     2.460809    26A1     2.460809
      27A1     2.631436    15B2     2.632596    15B1     2.641225
      16B2     2.644835    16B1     2.645533    28A1     2.706341
       8A2     2.707698    29A1     2.712763    17B2     2.724061
      17B1     2.726164    18B2     2.730466    30A1     2.734294
      18B1     2.734953     9A2     2.891247    31A1     2.891465
      32A1     3.119561    10A2     3.259097    33A1     3.259158
      19B2     3.291053    19B1     3.298387    11A2     3.338956
      34A1     3.338956    35A1     3.483456    20B2     3.582601
      20B1     3.593516    21B2     3.613143    21B1     3.613355
      36A1     3.731431    12A2     3.758890    37A1     3.760521
      38A1     3.985870    22B2     4.130682    22B1     4.134906
      23B2     4.631170    23B1     4.636434    39A1     4.647994
      24B2     4.661530    24B1     4.661531    25B2     5.078586
      25B1     5.078586    40A1     5.254578    13A2     5.255167
      41A1     5.261679    14A2     5.366355    42A1     5.366355
      26B2     5.442769    26B1     5.453906    27B2     5.734558
      27B1     5.749686    43A1     5.924569    15A2     5.926331
      44A1     5.955494    45A1     6.005206    28B2     6.022210
      28B1     6.022586    16A2     6.030805    46A1     6.030806
      29B2     6.054263    29B1     6.069280    17A2     6.090876
      47A1     6.091259    30B2     6.205782    30B1     6.205788
      31B2     6.290165    31B1     6.298723    48A1     6.370970
      32B2     6.483962    32B1     6.483964    18A2     6.541016
      49A1     6.541334    50A1     6.851422    19A2     6.851433
      51A1     7.180937    52A1     7.678416    33B2     7.795415
      33B1     7.807791    53A1     7.841290    20A2     8.188986
      54A1     8.189112    34B2     8.231019    34B1     8.242388
      55A1     9.212345    35B2     9.301769    35B1     9.312652
      56A1    11.399282    57A1    12.354201    21A2    12.354313
      36B2    12.416595    36B1    12.416608    37B2    12.590909
      37B1    12.605552    38B2    12.766541    38B1    12.766541
      58A1    12.809615    22A2    12.809615    59A1    12.967537
      39B2    13.071327    39B1    13.081189    23A2    13.514905
      60A1    13.514905    61A1    13.562179    40B2    13.650328
      40B1    13.650328    62A1    14.065018    41B2    14.102506
      41B1    14.116155    42B2    14.412541    42B1    14.412543
      24A2    14.467118    63A1    14.467123    64A1    14.659312
      25A2    14.659360    43B2    14.710188    43B1    14.716763
      65A1    14.822730    26A2    14.831937    66A1    14.835463
      44B2    15.001696    44B1    15.001696    27A2    15.031742
      67A1    15.031742    45B2    15.151653    45B1    15.151654
      68A1    15.600807    28A2    15.601189    69A1    15.705326
      46B2    16.205288    46B1    16.216372    70A1    16.401523
      47B2    16.612466    47B1    16.624146    71A1    16.924746
      29A2    16.925028    72A1    17.030354    48B2    17.969207
      48B1    17.977393    73A1    18.209280    30A2    18.209287
      74A1    18.574174    49B2    18.801827    49B1    18.813801
      50B2    20.896226    50B1    20.907247    75A1    22.496543
      76A1    23.170175    77A1    51.873049

    Final Occupation by Irrep:
             A1    A2    B1    B2
    DOCC [     3,    0,    1,    0 ]
    SOCC [     0,    0,    0,    1 ]

  Energy converged.

  @UHF Final Energy:   -54.93335358446860

   => Energetics <=

    Nuclear Repulsion Energy =              3.5703466775455959
    One-Electron Energy =                 -84.1992254465380796
    Two-Electron Energy =                  25.6955251845238841
    PCM Polarization Energy =               0.0000000000000000
    Total Energy =                        -54.9333535844685912

    Alert: EFP and PCM quantities not currently incorporated into SCF psivars.
  UHF NO Occupations:
  HONO-2 :    3 A1 1.9953723
  HONO-1 :    1 B1 1.8929990
  HONO-0 :    1 B2 1.0000000
  LUNO+0 :    2 B1 0.1070010
  LUNO+1 :    4 A1 0.0046277
  LUNO+2 :    5 A1 0.0024329
  LUNO+3 :    6 A1 0.0000016

Properties will be evaluated at   0.000000,   0.000000,   0.000000 Bohr

Properties computed using the SCF density matrix

  Nuclear Dipole Moment: (a.u.)
     X:     0.0000      Y:     0.0000      Z:    -0.9075

  Electronic Dipole Moment: (a.u.)
     X:     0.0000      Y:     0.0000      Z:     0.3839

  Dipole Moment: (a.u.)
     X:     0.0000      Y:     0.0000      Z:    -0.5236     Total:     0.5236

  Dipole Moment: (Debye)
     X:     0.0000      Y:     0.0000      Z:    -1.3309     Total:     1.3309

*** tstop() called on cqc05 at Fri Aug 21 03:48:34 2020
Module time:
	user time   =      50.98 seconds =       0.85 minutes
	system time =       3.38 seconds =       0.06 minutes
	total time  =         53 seconds =       0.88 minutes
Total time:
	user time   =      50.98 seconds =       0.85 minutes
	system time =       3.38 seconds =       0.06 minutes
	total time  =         53 seconds =       0.88 minutes

*** tstart() called on cqc05
*** at Fri Aug 21 03:48:34 2020

	Wfn Parameters:
	--------------------
	Wavefunction         = CCSD
	Number of irreps     = 4
	Number of MOs        = 207
	Number of active MOs = 206
	AO-Basis             = NONE
	Semicanonical        = false
	Reference            = UHF
	Print Level          = 1

	IRREP	# MOs	# FZDC	# DOCC	# SOCC	# VIRT	# FZVR
	-----	-----	------	------	------	------	------
	 A1	   77	    1	    2	    0	    74	    0
	 A2	   30	    0	    0	    0	    30	    0
	 B1	   50	    0	    1	    0	    49	    0
	 B2	   50	    0	    0	    1	    49	    0
	Transforming integrals...
	IWL integrals will be deleted.
	(OO|OO)...
	Presorting SO-basis two-electron integrals.
	Sorting File: SO Ints (nn|nn) nbuckets = 1
	Transforming the one-electron integrals and constructing Fock matrices
	Starting AA/AB first half-transformation.
	Sorting AA/AB half-transformed integrals.
	Starting BB first half-transformation.
	Sorting BB half-transformed integrals.
	First half integral transformation complete.
	Starting AA second half-transformation.
	Starting AB second half-transformation.
	Starting BB second half-transformation.
	Two-electron integral transformation complete.
	(OO|OV)...
	Starting AA second half-transformation.
	Starting AB second half-transformation.
	Starting BB second half-transformation.
	Two-electron integral transformation complete.
	(OO|VV)...
	Starting AA second half-transformation.
	Starting AB second half-transformation.
	Starting BB second half-transformation.
	Two-electron integral transformation complete.
	(OV|OO)...
	Starting AA/AB first half-transformation.
	Sorting AA/AB half-transformed integrals.
	Starting BB first half-transformation.
	Sorting BB half-transformed integrals.
	First half integral transformation complete.
	Starting AA second half-transformation.
	Starting AB second half-transformation.
	Starting BB second half-transformation.
	Two-electron integral transformation complete.
	(OV|OV)...
	Starting AA second half-transformation.
	Starting AB second half-transformation.
	Starting BB second half-transformation.
	Two-electron integral transformation complete.
	(OV|VV)...
	Starting AA second half-transformation.
	Starting AB second half-transformation.
	Starting BB second half-transformation.
	Two-electron integral transformation complete.
	(VV|OO)...
	Starting AA/AB first half-transformation.
	Sorting AA/AB half-transformed integrals.
	Starting BB first half-transformation.
	Sorting BB half-transformed integrals.
	First half integral transformation complete.
	Starting AA second half-transformation.
	Starting AB second half-transformation.
	Starting BB second half-transformation.
	Two-electron integral transformation complete.
	(VV|OV)...
	Starting AA second half-transformation.
	Starting AB second half-transformation.
	Starting BB second half-transformation.
	Two-electron integral transformation complete.
	(VV|VV)...
	Starting AA second half-transformation.
	Starting AB second half-transformation.
	Starting BB second half-transformation.
	Two-electron integral transformation complete.
	Frozen core energy     =    -45.75384277384236

	Size of irrep 0 of <AB|CD> integrals:     30.118 (MW) /    240.945 (MB)
	Size of irrep 1 of <AB|CD> integrals:     21.354 (MW) /    170.829 (MB)
	Size of irrep 2 of <AB|CD> integrals:     25.969 (MW) /    207.754 (MB)
	Size of irrep 3 of <AB|CD> integrals:     25.969 (MW) /    207.754 (MB)
	Total:                                   103.410 (MW) /    827.282 (MB)

	Size of irrep 0 of <ab|cd> integrals:     30.658 (MW) /    245.267 (MB)
	Size of irrep 1 of <ab|cd> integrals:     21.809 (MW) /    174.471 (MB)
	Size of irrep 2 of <ab|cd> integrals:     26.276 (MW) /    210.207 (MB)
	Size of irrep 3 of <ab|cd> integrals:     26.729 (MW) /    213.831 (MB)
	Total:                                   105.472 (MW) /    843.776 (MB)

	Size of irrep 0 of <Ab|Cd> integrals:    126.046 (MW) /   1008.364 (MB)
	Size of irrep 1 of <Ab|Cd> integrals:     86.323 (MW) /    690.581 (MB)
	Size of irrep 2 of <Ab|Cd> integrals:    104.489 (MW) /    835.914 (MB)
	Size of irrep 3 of <Ab|Cd> integrals:    105.391 (MW) /    843.126 (MB)
	Total:                                   422.248 (MW) /   3377.986 (MB)

	Size of irrep 0 of <IA|BC> integrals:      2.750 (MW) /     21.998 (MB)
	Size of irrep 1 of <IA|BC> integrals:      1.460 (MW) /     11.682 (MB)
	Size of irrep 2 of <IA|BC> integrals:      2.059 (MW) /     16.470 (MB)
	Size of irrep 3 of <IA|BC> integrals:      2.059 (MW) /     16.470 (MB)
	Total:                                     8.328 (MW) /     66.621 (MB)

	Size of irrep 0 of <ia|bc> integrals:      2.222 (MW) /     17.773 (MB)
	Size of irrep 1 of <ia|bc> integrals:      1.027 (MW) /      8.219 (MB)
	Size of irrep 2 of <ia|bc> integrals:      1.763 (MW) /     14.107 (MB)
	Size of irrep 3 of <ia|bc> integrals:      1.344 (MW) /     10.754 (MB)
	Total:                                     6.357 (MW) /     50.852 (MB)

	Size of irrep 0 of <Ia|Bc> integrals:      2.773 (MW) /     22.185 (MB)
	Size of irrep 1 of <Ia|Bc> integrals:      1.477 (MW) /     11.818 (MB)
	Size of irrep 2 of <Ia|Bc> integrals:      2.065 (MW) /     16.519 (MB)
	Size of irrep 3 of <Ia|Bc> integrals:      2.094 (MW) /     16.754 (MB)
	Total:                                     8.409 (MW) /     67.276 (MB)

	Size of irrep 0 of <iA|bC> integrals:      2.212 (MW) /     17.694 (MB)
	Size of irrep 1 of <iA|bC> integrals:      1.013 (MW) /      8.102 (MB)
	Size of irrep 2 of <iA|bC> integrals:      1.758 (MW) /     14.065 (MB)
	Size of irrep 3 of <iA|bC> integrals:      1.314 (MW) /     10.512 (MB)
	Total:                                     6.297 (MW) /     50.373 (MB)

	Size of irrep 0 of tIjAb amplitudes:       0.056 (MW) /      0.449 (MB)
	Size of irrep 1 of tIjAb amplitudes:       0.009 (MW) /      0.074 (MB)
	Size of irrep 2 of tIjAb amplitudes:       0.041 (MW) /      0.327 (MB)
	Size of irrep 3 of tIjAb amplitudes:       0.021 (MW) /      0.164 (MB)
	Total:                                     0.127 (MW) /      1.015 (MB)

	Nuclear Rep. energy          =      3.57034667754560
	SCF energy                   =    -54.93335358446860
	One-electron energy          =    -23.24862609230934
	Two-electron (AA) energy     =      3.01665922249776
	Two-electron (BB) energy     =      1.16320011973149
	Two-electron (AB) energy     =      6.31890926190824
	Two-electron energy          =     10.49876860413748
	Reference energy             =    -54.93335358446861

*** tstop() called on cqc05 at Fri Aug 21 03:49:36 2020
Module time:
	user time   =      37.70 seconds =       0.63 minutes
	system time =      23.83 seconds =       0.40 minutes
	total time  =         62 seconds =       1.03 minutes
Total time:
	user time   =      88.68 seconds =       1.48 minutes
	system time =      27.21 seconds =       0.45 minutes
	total time  =        115 seconds =       1.92 minutes

*** tstart() called on cqc05
*** at Fri Aug 21 03:49:36 2020

            **************************
            *                        *
            *        CCENERGY        *
            *                        *
            **************************

    Nuclear Rep. energy (wfn)     =    3.570346677545596
    SCF energy          (wfn)     =  -54.933353584468598
    Reference energy    (file100) =  -54.933353584468612

    Input parameters:
    -----------------
    Wave function   =     CCSD
    Reference wfn   =     UHF
    Brueckner       =     No
    Memory (Mbytes) =     250000.0
    Maxiter         =     50
    R_Convergence   =     1.0e-07
    E_Convergence   =     1.0e-06
    Restart         =     Yes
    DIIS            =     Yes
    AO Basis        =     NONE
    ABCD            =     NEW
    Cache Level     =     2
    Cache Type      =     LRU
    Print Level     =     1
    Num. of threads =     4
    # Amps to Print =     10
    Print MP2 Amps? =     No
    Analyze T2 Amps =     No
    Print Pair Ener =     No

      * MP2 total energy                      =  -55.145541834356976
      * CCSD total energy                     =  -55.160727197902304
*** Psi4 exiting successfully. Buy a developer a beer!
