                               Psi4 1.4a3.dev88

  ==> Input File <==

--------------------------------------------------------------------------
# Any line starting with the # character is a comment line
memory 250000 mb
molecule molecule{
0 3
C          0.0000000000        0.0000000000        0.0617255210
H          0.0000000000       -0.9845498409       -0.3677725027
H          0.0000000000        0.9845498409       -0.3677725027
}

set {
  reference uhf
  basis aug-cc-pV(d+d)Z
  scf_type OUT_OF_CORE
  freeze_core true
}

energy('ccsd(t)')
--------------------------------------------------------------------------

    Molecular point group: c2v

    Geometry (in Angstrom), charge = 0, multiplicity = 3:

       Center              X                  Y                   Z               Mass
    ------------   -----------------  -----------------  -----------------  -----------------
         C            0.000000000000     0.000000000000     0.061767931931    12.000000000000
         H            0.000000000000    -0.984549840900    -0.367730091769     1.007825032230
         H           -0.000000000000     0.984549840900    -0.367730091769     1.007825032230

  Charge       = 0
  Multiplicity = 3
  Basis Set: AUG-CC-PV(D+D)Z
    Blend: AUG-CC-PV(D+D)Z

    Orbital Energies [Eh]
    ---------------------

    Alpha Occupied:

       1A1   -11.271512     2A1    -0.951720     1B2    -0.619386
       3A1    -0.452752     1B1    -0.408750

    Alpha Virtual:

       4A1     0.037929     2B2     0.056351     5A1     0.111246
       2B1     0.115440     3B2     0.159420     6A1     0.173255
       7A1     0.250519     4B2     0.300047     1A2     0.347673
       8A1     0.392705     3B1     0.407638     5B2     0.461301
       9A1     0.490457     4B1     0.516207     6B2     0.520277
      10A1     0.541617    11A1     0.610285     7B2     0.636160
       2A2     0.641827     5B1     0.854852    12A1     0.860961
       8B2     0.972906    13A1     1.081443     9B2     1.412407
       3A2     1.513030     6B1     1.583518    14A1     1.610590
      15A1     1.676879    10B2     1.779740    16A1     2.005123
       7B1     2.014062    11B2     2.307782     4A2     2.316045
      17A1     2.383647    12B2     2.839902    18A1     3.025147

    Beta Occupied:

       1A1   -11.223160     2A1    -0.780474     1B2    -0.587111

    Beta Virtual:

       3A1     0.040786     2B2     0.057162     4A1     0.063941
       1B1     0.072787     3B2     0.161890     5A1     0.171910
       6A1     0.203833     2B1     0.213400     7A1     0.268665
       4B2     0.323639     1A2     0.363905     8A1     0.442004
       3B1     0.457679     5B2     0.468972     6B2     0.530591
       9A1     0.531566     4B1     0.557502    10A1     0.568887
      11A1     0.639426     7B2     0.661625     2A2     0.668230
      12A1     0.959746     5B1     0.980339     8B2     1.005914
      13A1     1.126941     9B2     1.447844     3A2     1.564404
      14A1     1.680765     6B1     1.697884    15A1     1.753785
      10B2     1.787970     7B1     2.050918    16A1     2.051061
      11B2     2.348624     4A2     2.360271    17A1     2.414650
      12B2     2.860310    18A1     3.051691

    Final Occupation by Irrep:
             A1    A2    B1    B2
    DOCC [     2,    0,    0,    1 ]
    SOCC [     1,    0,    1,    0 ]

  @UHF Final Energy:   -38.92820805363826

   => Energetics <=

    Nuclear Repulsion Energy =              6.1804872213181330
    One-Electron Energy =                 -63.9225257483637535
    Two-Electron Energy =                  18.8138304734073607
    Total Energy =                        -38.9282080536382580

  UHF NO Occupations:
  HONO-2 :    2 A1 1.9940148
  HONO-1 :    1 B1 1.0000000
  HONO-0 :    3 A1 1.0000000
  LUNO+0 :    4 A1 0.0059852
  LUNO+1 :    2 B2 0.0018230
  LUNO+2 :    5 A1 0.0000012
  LUNO+3 :    6 A1 0.0000000

Computation Completed

Properties will be evaluated at   0.000000,   0.000000,   0.000000 [a0]

Properties computed using the SCF density matrix

  Nuclear Dipole Moment: [e a0]
     X:     0.0000      Y:     0.0000      Z:    -0.6895

  Electronic Dipole Moment: [e a0]
     X:     0.0000      Y:     0.0000      Z:     0.4574

  Dipole Moment: [e a0]
     X:     0.0000      Y:     0.0000      Z:    -0.2321     Total:     0.2321

  Dipole Moment: [D]
     X:     0.0000      Y:     0.0000      Z:    -0.5900     Total:     0.5900

*** tstop() called on n412-039.vsc4.prov at Tue Jan 26 18:15:49 2021
Module time:
	user time   =      17.35 seconds =       0.29 minutes
	system time =       0.90 seconds =       0.02 minutes
	total time  =          1 seconds =       0.02 minutes
Total time:
	user time   =      17.35 seconds =       0.29 minutes
	system time =       0.90 seconds =       0.02 minutes
	total time  =          1 seconds =       0.02 minutes

*** tstart() called on n412-039.vsc4.prov
*** at Tue Jan 26 18:15:49 2021

	Wfn Parameters:
	--------------------
	Wavefunction         = CCSD_T
	Number of irreps     = 4
	Number of MOs        = 41
	Number of active MOs = 40
	AO-Basis             = NONE
	Semicanonical        = false
	Reference            = UHF
	Print Level          = 1

	IRREP	# MOs	# FZDC	# DOCC	# SOCC	# VIRT	# FZVR
	-----	-----	------	------	------	------	------
	 A1	   18	    1	    1	    1	    15	    0
	 A2	   4	    0	    0	    0	    4	    0
	 B1	   7	    0	    0	    1	    6	    0
	 B2	   12	    0	    1	    0	    11	    0
	Transforming integrals...
	IWL integrals will be deleted.
	(OO|OO)...
	Presorting SO-basis two-electron integrals.
	Sorting File: SO Ints (nn|nn) nbuckets = 1
	Constructing frozen core operators
	Starting AA/AB first half-transformation.
	Sorting AA/AB half-transformed integrals.
	Starting BB first half-transformation.
	Sorting BB half-transformed integrals.
	First half integral transformation complete.
	Starting AA second half-transformation.
	Starting AB second half-transformation.
	Starting BB second half-transformation.
	Two-electron integral transformation complete.
	(OO|OV)...
	Starting AA second half-transformation.
	Starting AB second half-transformation.
	Starting BB second half-transformation.
	Two-electron integral transformation complete.
	(OO|VV)...
	Starting AA second half-transformation.
	Starting AB second half-transformation.
	Starting BB second half-transformation.
	Two-electron integral transformation complete.
	(OV|OO)...
	Starting AA/AB first half-transformation.
	Sorting AA/AB half-transformed integrals.
	Starting BB first half-transformation.
	Sorting BB half-transformed integrals.
	First half integral transformation complete.
	Starting AA second half-transformation.
	Starting AB second half-transformation.
	Starting BB second half-transformation.
	Two-electron integral transformation complete.
	(OV|OV)...
	Starting AA second half-transformation.
	Starting AB second half-transformation.
	Starting BB second half-transformation.
	Two-electron integral transformation complete.
	(OV|VV)...
	Starting AA second half-transformation.
	Starting AB second half-transformation.
	Starting BB second half-transformation.
	Two-electron integral transformation complete.
	(VV|OO)...
	Starting AA/AB first half-transformation.
	Sorting AA/AB half-transformed integrals.
	Starting BB first half-transformation.
	Sorting BB half-transformed integrals.
	First half integral transformation complete.
	Starting AA second half-transformation.
	Starting AB second half-transformation.
	Starting BB second half-transformation.
	Two-electron integral transformation complete.
	(VV|OV)...
	Starting AA second half-transformation.
	Starting AB second half-transformation.
	Starting BB second half-transformation.
	Two-electron integral transformation complete.
	(VV|VV)...
	Starting AA second half-transformation.
	Starting AB second half-transformation.
	Starting BB second half-transformation.
	Two-electron integral transformation complete.
	Frozen core energy     =    -34.32915625426956

	Size of irrep 0 of <AB|CD> integrals:      0.033 (MW) /      0.262 (MB)
	Size of irrep 1 of <AB|CD> integrals:      0.016 (MW) /      0.127 (MB)
	Size of irrep 2 of <AB|CD> integrals:      0.018 (MW) /      0.144 (MB)
	Size of irrep 3 of <AB|CD> integrals:      0.036 (MW) /      0.286 (MB)
	Total:                                     0.102 (MW) /      0.819 (MB)

	Size of irrep 0 of <ab|cd> integrals:      0.041 (MW) /      0.326 (MB)
	Size of irrep 1 of <ab|cd> integrals:      0.020 (MW) /      0.159 (MB)
	Size of irrep 2 of <ab|cd> integrals:      0.024 (MW) /      0.195 (MB)
	Size of irrep 3 of <ab|cd> integrals:      0.042 (MW) /      0.333 (MB)
	Total:                                     0.127 (MW) /      1.013 (MB)

	Size of irrep 0 of <Ab|Cd> integrals:      0.176 (MW) /      1.404 (MB)
	Size of irrep 1 of <Ab|Cd> integrals:      0.071 (MW) /      0.570 (MB)
	Size of irrep 2 of <Ab|Cd> integrals:      0.084 (MW) /      0.668 (MB)
	Size of irrep 3 of <Ab|Cd> integrals:      0.154 (MW) /      1.236 (MB)
	Total:                                     0.485 (MW) /      3.879 (MB)

	Size of irrep 0 of <IA|BC> integrals:      0.019 (MW) /      0.150 (MB)
	Size of irrep 1 of <IA|BC> integrals:      0.006 (MW) /      0.050 (MB)
	Size of irrep 2 of <IA|BC> integrals:      0.008 (MW) /      0.066 (MB)
	Size of irrep 3 of <IA|BC> integrals:      0.015 (MW) /      0.124 (MB)
	Total:                                     0.049 (MW) /      0.390 (MB)

	Size of irrep 0 of <ia|bc> integrals:      0.012 (MW) /      0.095 (MB)
	Size of irrep 1 of <ia|bc> integrals:      0.003 (MW) /      0.025 (MB)
	Size of irrep 2 of <ia|bc> integrals:      0.003 (MW) /      0.027 (MB)
	Size of irrep 3 of <ia|bc> integrals:      0.011 (MW) /      0.088 (MB)
	Total:                                     0.029 (MW) /      0.236 (MB)

	Size of irrep 0 of <Ia|Bc> integrals:      0.021 (MW) /      0.168 (MB)
	Size of irrep 1 of <Ia|Bc> integrals:      0.007 (MW) /      0.056 (MB)
	Size of irrep 2 of <Ia|Bc> integrals:      0.010 (MW) /      0.079 (MB)
	Size of irrep 3 of <Ia|Bc> integrals:      0.017 (MW) /      0.132 (MB)
	Total:                                     0.054 (MW) /      0.434 (MB)

	Size of irrep 0 of <iA|bC> integrals:      0.011 (MW) /      0.087 (MB)
	Size of irrep 1 of <iA|bC> integrals:      0.003 (MW) /      0.021 (MB)
	Size of irrep 2 of <iA|bC> integrals:      0.003 (MW) /      0.023 (MB)
	Size of irrep 3 of <iA|bC> integrals:      0.010 (MW) /      0.082 (MB)
	Total:                                     0.027 (MW) /      0.213 (MB)

	Size of irrep 0 of tIjAb amplitudes:       0.001 (MW) /      0.010 (MB)
	Size of irrep 1 of tIjAb amplitudes:       0.000 (MW) /      0.002 (MB)
	Size of irrep 2 of tIjAb amplitudes:       0.000 (MW) /      0.002 (MB)
	Size of irrep 3 of tIjAb amplitudes:       0.001 (MW) /      0.009 (MB)
	Total:                                     0.003 (MW) /      0.024 (MB)

	Nuclear Rep. energy          =      6.18048722131813
	SCF energy                   =    -38.92820805363826
	One-electron energy          =    -17.75888506327963
	Two-electron (AA) energy     =      2.58112327955670
	Two-electron (BB) energy     =      0.36151952600880
	Two-electron (AB) energy     =      4.03670323702728
	Two-electron energy          =      6.97934604259278
	Reference energy             =    -38.92820805363828

*** tstop() called on n412-039.vsc4.prov at Tue Jan 26 18:15:50 2021
Module time:
	user time   =       0.09 seconds =       0.00 minutes
	system time =       0.18 seconds =       0.00 minutes
	total time  =          1 seconds =       0.02 minutes
Total time:
	user time   =      17.44 seconds =       0.29 minutes
	system time =       1.08 seconds =       0.02 minutes
	total time  =          2 seconds =       0.03 minutes
            **************************
            *                        *
            *        CCENERGY        *
            *                        *
            **************************

    Nuclear Rep. energy (wfn)     =    6.180487221318133
    SCF energy          (wfn)     =  -38.928208053638258
    Reference energy    (file100) =  -38.928208053638279

    Input parameters:
    -----------------
    Wave function   =     CCSD_T
    Reference wfn   =     UHF
    Brueckner       =     No
    Memory (Mbytes) =     250000.0
    Maxiter         =     50
    R_Convergence   =     1.0e-07
    E_Convergence   =     1.0e-06
    Restart         =     Yes
    DIIS            =     Yes
    AO Basis        =     NONE
    ABCD            =     NEW
    Cache Level     =     2
    Cache Type      =     LRU
    Print Level     =     1
    Num. of threads =     48
    # Amps to Print =     10
    Print MP2 Amps? =     No
    Analyze T2 Amps =     No
    Print Pair Ener =     No
    Local CC        =     No
    SCS-MP2         =     False
    SCSN-MP2        =     False
    SCS-CCSD        =     False

MP2 correlation energy -0.0967865396982285
                Solving CC Amplitude Equations
                ------------------------------
  Iter             Energy              RMS        T1Diag      D1Diag    New D1Diag    D2Diag
  ----     ---------------------    ---------   ----------  ----------  ----------   --------
     0        -0.096786539698228    0.000e+00    0.000000    0.000000    0.000000    0.000000
     1        -0.112009499516828    3.977e-02    0.007524    0.000000    0.000000    0.000000
     2        -0.116914383082577    1.572e-02    0.012949    0.000000    0.000000    0.000000
     3        -0.117321972326643    5.436e-03    0.015619    0.000000    0.000000    0.000000
     4        -0.117337617227500    1.498e-03    0.016054    0.000000    0.000000    0.000000
     5        -0.117348140263878    5.118e-04    0.016122    0.000000    0.000000    0.000000
     6        -0.117352676732654    1.922e-04    0.016101    0.000000    0.000000    0.000000
     7        -0.117353976112669    6.454e-05    0.016090    0.000000    0.000000    0.000000
     8        -0.117354061686896    1.996e-05    0.016087    0.000000    0.000000    0.000000
     9        -0.117354005973143    5.995e-06    0.016086    0.000000    0.000000    0.000000
    10        -0.117354020569700    2.219e-06    0.016086    0.000000    0.000000    0.000000
    11        -0.117354009930405    6.269e-07    0.016086    0.000000    0.000000    0.000000
    12        -0.117354010904746    2.037e-07    0.016086    0.000000    0.000000    0.000000
    13        -0.117354009297845    5.783e-08    0.016086    0.000000    0.000000    0.000000

    Iterations converged.

    Largest TIA Amplitudes:
              2  19        -0.0147747383
              1   1         0.0113414750
              0   3        -0.0096663626
              2  20        -0.0093421046
              1   4        -0.0075753022
              0   7        -0.0047138500
              3  27        -0.0041158135
              1   5        -0.0038278598
              3  33         0.0036571615
              0   8         0.0033076821

    Largest Tia Amplitudes:
              0   4         0.0115096337
              0   3        -0.0108682695
              0   1         0.0101929251
              0   8         0.0093809899
              0   2         0.0084646802
              0   9        -0.0075714637
              1  33         0.0061755651
              0   6        -0.0057587513
              0  14        -0.0049406915
              1  36         0.0047776508

    Largest TIJAB Amplitudes:
      2   1  22   8        -0.0181562098
      2   1  20   4        -0.0164248608
      3   2  31  22        -0.0145999829
      3   2  15   3         0.0139253904
      2   1  23  10         0.0134402050
      3   1  31   8        -0.0131637592
      3   2  27  22        -0.0122953702
      2   1  22   1         0.0122719736
      3   1  27   8        -0.0122648836
      2   1  19   8        -0.0112343213

    Largest Tijab Amplitudes:
      1   0  21  18        -0.0061897255
      1   0  21  16        -0.0057977444
      1   0  29   3         0.0054894261
      1   0  30   4        -0.0051494993
      1   0  30   8        -0.0048097423
      1   0  33   3         0.0043757268
      1   0  29   1        -0.0040595006
      1   0  20  16        -0.0040186869
      1   0  21  17         0.0039726682
      1   0  20  18        -0.0038348352

    Largest TIjAb Amplitudes:
      3   1  31  33        -0.0272340417
      2   0   3  21        -0.0255202260
      3   1   3   4        -0.0232407767
      3   1  27  29        -0.0224191078
      3   1  27  33        -0.0215536208
      3   1  31  29        -0.0188861138
      3   1   3   8        -0.0188182404
      2   1  22  33        -0.0181092265
      1   0  20  21         0.0172468368
      1   0  23  21         0.0171018859

    SCF energy       (wfn)                    =  -38.928208053638258
    Reference energy (file100)                =  -38.928208053638279

    Opposite-spin MP2 correlation energy      =   -0.074412399619143
    Same-spin MP2 correlation energy          =   -0.022374140079085
    Singles MP2 correlation energy            =   -0.000000000000000
    MP2 correlation energy                    =   -0.096786539698228
      * MP2 total energy                      =  -39.024994593336508

    Opposite-spin CCSD correlation energy     =   -0.093025415701663
    Same-spin CCSD correlation energy         =   -0.024328593596182
    Singles CCSD correlation energy           =    0.000000000000000
    CCSD correlation energy                   =   -0.117354009297845
      * CCSD total energy                     =  -39.045562062936128

            **************************
            *                        *
            *        CCTRIPLES       *
            *                        *
            **************************

    Wave function   =    CCSD_T
    Reference wfn   =      UHF

    Nuclear Rep. energy (wfn)                =    6.180487221318133
    SCF energy          (wfn)                =  -38.928208053638258
    Reference energy    (file100)            =  -38.928208053638279
    CCSD energy         (file100)            =   -0.117354009297845
    Total CCSD energy   (file100)            =  -39.045562062936128

      * CCSD(T) total energy                     =  -39.047796859110633
*** Psi4 exiting successfully. Buy a developer a beer!
