                               Psi4 1.4a3.dev88

  ==> Input File <==

--------------------------------------------------------------------------
# Any line starting with the # character is a comment line
memory 250000 mb
molecule molecule{
-1 3
C          0.0000000000        0.0000000000        0.0874497820
H          0.0000000000        0.0000000000       -1.0420851747
}

set {
  reference uhf
  basis aug-cc-pV(d+d)Z
  scf_type OUT_OF_CORE
  freeze_core true
}

energy('ccsd(t)')
--------------------------------------------------------------------------

    Molecular point group: c2v

    Geometry (in Angstrom), charge = -1, multiplicity = 3:

       Center              X                  Y                   Z               Mass
    ------------   -----------------  -----------------  -----------------  -----------------
         C            0.000000000000     0.000000000000     0.087514523091    12.000000000000
         H            0.000000000000     0.000000000000    -1.042020433609     1.007825032230

  Charge       = -1
  Multiplicity = 3
  Basis Set: AUG-CC-PV(D+D)Z
    Blend: AUG-CC-PV(D+D)Z

    Orbital Energies [Eh]
    ---------------------

    Alpha Occupied:

       1A1   -10.975537     2A1    -0.585041     3A1    -0.159401
       1B1    -0.077141     1B2    -0.077141

    Alpha Virtual:

       4A1     0.175438     5A1     0.288436     2B1     0.296331
       2B2     0.296331     6A1     0.358616     7A1     0.515689
       3B2     0.597858     3B1     0.597858     1A2     0.680439
       8A1     0.680439     9A1     0.732933    10A1     0.812012
       4B1     0.826173     4B2     0.826173     5B1     1.110449
       5B2     1.110449    11A1     1.157549    12A1     1.244051
       6B1     1.833460     6B2     1.833460    13A1     1.896927
       2A2     1.949240    14A1     1.949240    15A1     2.384898
       7B1     2.437126     7B2     2.437126    16A1     2.979717

    Beta Occupied:

       1A1   -10.939718     2A1    -0.422569     3A1    -0.086304

    Beta Virtual:

       4A1     0.177723     1B1     0.263177     1B2     0.263177
       5A1     0.294525     6A1     0.379883     2B2     0.471377
       2B1     0.471377     7A1     0.531939     3B1     0.629627
       3B2     0.629627     1A2     0.741348     8A1     0.741348
       9A1     0.760111    10A1     0.828292     4B1     0.856026
       4B2     0.856026    11A1     1.186276     5B2     1.231035
       5B1     1.231035    12A1     1.277428     6B2     1.882507
       6B1     1.882507    13A1     1.936435     2A2     2.070697
      14A1     2.070697    15A1     2.425581     7B2     2.468823
       7B1     2.468823    16A1     2.991564

    Final Occupation by Irrep:
             A1    A2    B1    B2
    DOCC [     3,    0,    0,    0 ]
    SOCC [     0,    0,    1,    1 ]

  @UHF Final Energy:   -38.29140280377543

   => Energetics <=

    Nuclear Repulsion Energy =              2.8109473241059550
    One-Electron Energy =                 -58.8818499062680090
    Two-Electron Energy =                  17.7794997783866151
    Total Energy =                        -38.2914028037754406

  UHF NO Occupations:
  HONO-2 :    3 A1 1.9908127
  HONO-1 :    1 B1 1.0000000
  HONO-0 :    1 B2 1.0000000
  LUNO+0 :    4 A1 0.0091873
  LUNO+1 :    5 A1 0.0022781
  LUNO+2 :    6 A1 0.0000011
  LUNO+3 :    7 A1 0.0000000

Computation Completed

Properties will be evaluated at   0.000000,   0.000000,   0.000000 [a0]

Properties computed using the SCF density matrix

  Nuclear Dipole Moment: [e a0]
     X:     0.0000      Y:     0.0000      Z:    -0.9769

  Electronic Dipole Moment: [e a0]
     X:     0.0000      Y:     0.0000      Z:     0.3636

  Dipole Moment: [e a0]
     X:     0.0000      Y:     0.0000      Z:    -0.6132     Total:     0.6132

  Dipole Moment: [D]
     X:     0.0000      Y:     0.0000      Z:    -1.5587     Total:     1.5587

*** tstop() called on n412-039.vsc4.prov at Tue Jan 26 18:15:25 2021
Module time:
	user time   =      14.27 seconds =       0.24 minutes
	system time =       0.92 seconds =       0.02 minutes
	total time  =          1 seconds =       0.02 minutes
Total time:
	user time   =      14.27 seconds =       0.24 minutes
	system time =       0.92 seconds =       0.02 minutes
	total time  =          1 seconds =       0.02 minutes

*** tstart() called on n412-039.vsc4.prov
*** at Tue Jan 26 18:15:25 2021

	Wfn Parameters:
	--------------------
	Wavefunction         = CCSD_T
	Number of irreps     = 4
	Number of MOs        = 32
	Number of active MOs = 31
	AO-Basis             = NONE
	Semicanonical        = false
	Reference            = UHF
	Print Level          = 1

	IRREP	# MOs	# FZDC	# DOCC	# SOCC	# VIRT	# FZVR
	-----	-----	------	------	------	------	------
	 A1	   16	    1	    2	    0	    13	    0
	 A2	   2	    0	    0	    0	    2	    0
	 B1	   7	    0	    0	    1	    6	    0
	 B2	   7	    0	    0	    1	    6	    0
	Transforming integrals...
	IWL integrals will be deleted.
	(OO|OO)...
	Presorting SO-basis two-electron integrals.
	Sorting File: SO Ints (nn|nn) nbuckets = 1
	Constructing frozen core operators
	Starting AA/AB first half-transformation.
	Sorting AA/AB half-transformed integrals.
	Starting BB first half-transformation.
	Sorting BB half-transformed integrals.
	First half integral transformation complete.
	Starting AA second half-transformation.
	Starting AB second half-transformation.
	Starting BB second half-transformation.
	Two-electron integral transformation complete.
	(OO|OV)...
	Starting AA second half-transformation.
	Starting AB second half-transformation.
	Starting BB second half-transformation.
	Two-electron integral transformation complete.
	(OO|VV)...
	Starting AA second half-transformation.
	Starting AB second half-transformation.
	Starting BB second half-transformation.
	Two-electron integral transformation complete.
	(OV|OO)...
	Starting AA/AB first half-transformation.
	Sorting AA/AB half-transformed integrals.
	Starting BB first half-transformation.
	Sorting BB half-transformed integrals.
	First half integral transformation complete.
	Starting AA second half-transformation.
	Starting AB second half-transformation.
	Starting BB second half-transformation.
	Two-electron integral transformation complete.
	(OV|OV)...
	Starting AA second half-transformation.
	Starting AB second half-transformation.
	Starting BB second half-transformation.
	Two-electron integral transformation complete.
	(OV|VV)...
	Starting AA second half-transformation.
	Starting AB second half-transformation.
	Starting BB second half-transformation.
	Two-electron integral transformation complete.
	(VV|OO)...
	Starting AA/AB first half-transformation.
	Sorting AA/AB half-transformed integrals.
	Starting BB first half-transformation.
	Sorting BB half-transformed integrals.
	First half integral transformation complete.
	Starting AA second half-transformation.
	Starting AB second half-transformation.
	Starting BB second half-transformation.
	Two-electron integral transformation complete.
	(VV|OV)...
	Starting AA second half-transformation.
	Starting AB second half-transformation.
	Starting BB second half-transformation.
	Two-electron integral transformation complete.
	(VV|VV)...
	Starting AA second half-transformation.
	Starting AB second half-transformation.
	Starting BB second half-transformation.
	Two-electron integral transformation complete.
	Frozen core energy     =    -33.29597894170944

	Size of irrep 0 of <AB|CD> integrals:      0.012 (MW) /      0.095 (MB)
	Size of irrep 1 of <AB|CD> integrals:      0.004 (MW) /      0.031 (MB)
	Size of irrep 2 of <AB|CD> integrals:      0.008 (MW) /      0.065 (MB)
	Size of irrep 3 of <AB|CD> integrals:      0.008 (MW) /      0.065 (MB)
	Total:                                     0.032 (MW) /      0.255 (MB)

	Size of irrep 0 of <ab|cd> integrals:      0.015 (MW) /      0.117 (MB)
	Size of irrep 1 of <ab|cd> integrals:      0.006 (MW) /      0.045 (MB)
	Size of irrep 2 of <ab|cd> integrals:      0.011 (MW) /      0.088 (MB)
	Size of irrep 3 of <ab|cd> integrals:      0.011 (MW) /      0.088 (MB)
	Total:                                     0.042 (MW) /      0.339 (MB)

	Size of irrep 0 of <Ab|Cd> integrals:      0.066 (MW) /      0.528 (MB)
	Size of irrep 1 of <Ab|Cd> integrals:      0.018 (MW) /      0.148 (MB)
	Size of irrep 2 of <Ab|Cd> integrals:      0.038 (MW) /      0.304 (MB)
	Size of irrep 3 of <Ab|Cd> integrals:      0.038 (MW) /      0.304 (MB)
	Total:                                     0.161 (MW) /      1.285 (MB)

	Size of irrep 0 of <IA|BC> integrals:      0.009 (MW) /      0.074 (MB)
	Size of irrep 1 of <IA|BC> integrals:      0.002 (MW) /      0.016 (MB)
	Size of irrep 2 of <IA|BC> integrals:      0.005 (MW) /      0.039 (MB)
	Size of irrep 3 of <IA|BC> integrals:      0.005 (MW) /      0.039 (MB)
	Total:                                     0.021 (MW) /      0.168 (MB)

	Size of irrep 0 of <ia|bc> integrals:      0.007 (MW) /      0.056 (MB)
	Size of irrep 1 of <ia|bc> integrals:      0.001 (MW) /      0.005 (MB)
	Size of irrep 2 of <ia|bc> integrals:      0.003 (MW) /      0.024 (MB)
	Size of irrep 3 of <ia|bc> integrals:      0.003 (MW) /      0.024 (MB)
	Total:                                     0.014 (MW) /      0.108 (MB)

	Size of irrep 0 of <Ia|Bc> integrals:      0.010 (MW) /      0.082 (MB)
	Size of irrep 1 of <Ia|Bc> integrals:      0.002 (MW) /      0.020 (MB)
	Size of irrep 2 of <Ia|Bc> integrals:      0.006 (MW) /      0.045 (MB)
	Size of irrep 3 of <Ia|Bc> integrals:      0.006 (MW) /      0.045 (MB)
	Total:                                     0.024 (MW) /      0.192 (MB)

	Size of irrep 0 of <iA|bC> integrals:      0.007 (MW) /      0.053 (MB)
	Size of irrep 1 of <iA|bC> integrals:      0.001 (MW) /      0.004 (MB)
	Size of irrep 2 of <iA|bC> integrals:      0.002 (MW) /      0.019 (MB)
	Size of irrep 3 of <iA|bC> integrals:      0.002 (MW) /      0.019 (MB)
	Total:                                     0.012 (MW) /      0.095 (MB)

	Size of irrep 0 of tIjAb amplitudes:       0.001 (MW) /      0.008 (MB)
	Size of irrep 1 of tIjAb amplitudes:       0.000 (MW) /      0.000 (MB)
	Size of irrep 2 of tIjAb amplitudes:       0.000 (MW) /      0.003 (MB)
	Size of irrep 3 of tIjAb amplitudes:       0.000 (MW) /      0.003 (MB)
	Total:                                     0.002 (MW) /      0.014 (MB)

	Nuclear Rep. energy          =      2.81094732410596
	SCF energy                   =    -38.29140280377543
	One-electron energy          =    -14.20514653041130
	Two-electron (AA) energy     =      2.35158669158073
	Two-electron (BB) energy     =      0.34608576497806
	Two-electron (AB) energy     =      3.70110288768056
	Two-electron energy          =      6.39877534423935
	Reference energy             =    -38.29140280377544

*** tstop() called on n412-039.vsc4.prov at Tue Jan 26 18:15:26 2021
Module time:
	user time   =       0.07 seconds =       0.00 minutes
	system time =       0.10 seconds =       0.00 minutes
	total time  =          1 seconds =       0.02 minutes
Total time:
	user time   =      14.34 seconds =       0.24 minutes
	system time =       1.02 seconds =       0.02 minutes
	total time  =          2 seconds =       0.03 minutes
            **************************
            *                        *
            *        CCENERGY        *
            *                        *
            **************************

    Nuclear Rep. energy (wfn)     =    2.810947324105955
    SCF energy          (wfn)     =  -38.291402803775433
    Reference energy    (file100) =  -38.291402803775441

    Input parameters:
    -----------------
    Wave function   =     CCSD_T
    Reference wfn   =     UHF
    Brueckner       =     No
    Memory (Mbytes) =     250000.0
    Maxiter         =     50
    R_Convergence   =     1.0e-07
    E_Convergence   =     1.0e-06
    Restart         =     Yes
    DIIS            =     Yes
    AO Basis        =     NONE
    ABCD            =     NEW
    Cache Level     =     2
    Cache Type      =     LRU
    Print Level     =     1
    Num. of threads =     48
    # Amps to Print =     10
    Print MP2 Amps? =     No
    Analyze T2 Amps =     No
    Print Pair Ener =     No
    Local CC        =     No
    SCS-MP2         =     False
    SCSN-MP2        =     False
    SCS-CCSD        =     False

MP2 correlation energy -0.1102622178895222
                Solving CC Amplitude Equations
                ------------------------------
  Iter             Energy              RMS        T1Diag      D1Diag    New D1Diag    D2Diag
  ----     ---------------------    ---------   ----------  ----------  ----------   --------
     0        -0.110262217889522    0.000e+00    0.000000    0.000000    0.000000    0.000000
     1        -0.124838293554538    5.718e-02    0.016546    0.000000    0.000000    0.000000
     2        -0.130130875259949    2.315e-02    0.024406    0.000000    0.000000    0.000000
     3        -0.131186960151106    1.124e-02    0.029848    0.000000    0.000000    0.000000
     4        -0.131113894579054    4.880e-03    0.032315    0.000000    0.000000    0.000000
     5        -0.131103179514830    2.107e-03    0.032917    0.000000    0.000000    0.000000
     6        -0.131133686046236    9.915e-04    0.033107    0.000000    0.000000    0.000000
     7        -0.131146858156534    4.961e-04    0.033064    0.000000    0.000000    0.000000
     8        -0.131149135874439    2.103e-04    0.033032    0.000000    0.000000    0.000000
     9        -0.131148999537019    9.645e-05    0.033030    0.000000    0.000000    0.000000
    10        -0.131148211754795    4.513e-05    0.033021    0.000000    0.000000    0.000000
    11        -0.131148606581981    2.244e-05    0.033023    0.000000    0.000000    0.000000
    12        -0.131149103115745    1.097e-05    0.033023    0.000000    0.000000    0.000000
    13        -0.131149157537772    5.408e-06    0.033024    0.000000    0.000000    0.000000
    14        -0.131149069663342    2.608e-06    0.033024    0.000000    0.000000    0.000000
    15        -0.131149030462846    8.602e-07    0.033024    0.000000    0.000000    0.000000
    16        -0.131149017554090    3.877e-07    0.033024    0.000000    0.000000    0.000000
    17        -0.131149018088302    1.739e-07    0.033024    0.000000    0.000000    0.000000
    18        -0.131149017693172    7.343e-08    0.033024    0.000000    0.000000    0.000000

    Iterations converged.

    Largest TIA Amplitudes:
              2  15        -0.0463750739
              3  21        -0.0463750648
              1   1        -0.0189667879
              2  16        -0.0106870453
              3  22        -0.0106870427
              0   1        -0.0087701293
              1   2         0.0081609982
              1   6        -0.0080874002
              0   2         0.0069390919
              1   7        -0.0059183946

    Largest Tia Amplitudes:
              0   3         0.0161954374
              1   3         0.0149551653
              0   6         0.0108801799
              1   7        -0.0094276749
              0   7         0.0087586332
              1   5        -0.0083831756
              1   6         0.0082517240
              1   8        -0.0078666118
              0   8        -0.0077298217
              1   0         0.0072920734

    Largest TIJAB Amplitudes:
      3   2  21  15        -0.0426621046
      3   2  13   4        -0.0243926459
      3   2  24  18        -0.0236628128
      3   2  21  18        -0.0234629317
      3   2  24  15        -0.0234629286
      3   1  22   3         0.0208369097
      2   1  16   3         0.0208369082
      3   1  21   1        -0.0198472429
      2   1  15   1        -0.0198472381
      2   1  18   7         0.0188318912

    Largest Tijab Amplitudes:
      1   0  17  16        -0.0105840258
      1   0  24  23        -0.0105840257
      1   0  20  16        -0.0078873720
      1   0  27  23        -0.0078873720
      1   0   6   3        -0.0074306276
      1   0   3   1         0.0073254754
      1   0   8   3         0.0060422625
      1   0   3   2        -0.0056433446
      1   0   8   7         0.0055867504
      1   0   2   1        -0.0053555211

    Largest TIjAb Amplitudes:
      1   1   3   3        -0.0453289761
      1   1   7   7        -0.0373607128
      3   1  21   1        -0.0315531159
      2   1  15   1        -0.0315531081
      1   1   3   7        -0.0274061457
      1   1   7   3        -0.0244173308
      3   0   4  23         0.0235787715
      3   0  13  16        -0.0235787712
      2   0  13  23        -0.0235787708
      2   0   4  16        -0.0235787705

    SCF energy       (wfn)                    =  -38.291402803775433
    Reference energy (file100)                =  -38.291402803775441

    Opposite-spin MP2 correlation energy      =   -0.082499870145181
    Same-spin MP2 correlation energy          =   -0.027762347744341
    Singles MP2 correlation energy            =   -0.000000000000000
    MP2 correlation energy                    =   -0.110262217889522
      * MP2 total energy                      =  -38.401665021664961

    Opposite-spin CCSD correlation energy     =   -0.102323253799030
    Same-spin CCSD correlation energy         =   -0.028825763894142
    Singles CCSD correlation energy           =    0.000000000000000
    CCSD correlation energy                   =   -0.131149017693172
      * CCSD total energy                     =  -38.422551821468609

            **************************
            *                        *
            *        CCTRIPLES       *
            *                        *
            **************************

    Wave function   =    CCSD_T
    Reference wfn   =      UHF

    Nuclear Rep. energy (wfn)                =    2.810947324105955
    SCF energy          (wfn)                =  -38.291402803775433
    Reference energy    (file100)            =  -38.291402803775441
    CCSD energy         (file100)            =   -0.131149017693172
    Total CCSD energy   (file100)            =  -38.422551821468609

      * CCSD(T) total energy                     =  -38.426856222099005
*** Psi4 exiting successfully. Buy a developer a beer!
