                               Psi4 1.4a3.dev88

  ==> Input File <==

--------------------------------------------------------------------------
# Any line starting with the # character is a comment line
memory 250000 mb
molecule molecule{
0 1
C          0.0000000000        0.0000000000        0.6665882445
C          0.0000000000        0.0000000000       -0.6665882445
H          0.0000000000        0.9233992299        1.2285968100
H          0.0000000000       -0.9233992299        1.2285968100
H          0.0000000000        0.9233992299       -1.2285968100
H          0.0000000000       -0.9233992299       -1.2285968100
}

set {
  reference rhf
  basis aug-cc-pV(5+d)Z
  scf_type OUT_OF_CORE
  freeze_core true
}

energy('ccsd(t)')
--------------------------------------------------------------------------

    Molecular point group: d2h

    Geometry (in Angstrom), charge = 0, multiplicity = 1:

       Center              X                  Y                   Z               Mass
    ------------   -----------------  -----------------  -----------------  -----------------
         C           -0.000000000000     0.000000000000     0.666588244500    12.000000000000
         C           -0.000000000000     0.000000000000    -0.666588244500    12.000000000000
         H           -0.000000000000     0.923399229900     1.228596810000     1.007825032230
         H            0.000000000000    -0.923399229900     1.228596810000     1.007825032230
         H           -0.000000000000     0.923399229900    -1.228596810000     1.007825032230
         H            0.000000000000    -0.923399229900    -1.228596810000     1.007825032230

  Charge       = 0
  Multiplicity = 1
  Basis Set: AUG-CC-PV(5+D)Z
    Blend: AUG-CC-PV(5+D)Z

    Orbital Energies [Eh]
    ---------------------

    Doubly Occupied:

       1Ag   -11.230200     1B1u  -11.228480     2Ag    -1.034171
       2B1u   -0.793393     1B2u   -0.644963     3Ag    -0.587774
       1B3g   -0.508937     1B3u   -0.377194

  @RHF Final Energy:   -78.07048990768138

   => Energetics <=

    Nuclear Repulsion Energy =             33.4106849149075060
    One-Electron Energy =                -170.1521252748648578
    Two-Electron Energy =                  58.6709504522759744
    Total Energy =                        -78.0704899076813774

  Dipole Moment: [D]
     X:     0.0000      Y:     0.0000      Z:     0.0000     Total:     0.0000

      * MP2 total energy                      =  -78.435587086435120
      * CCSD total energy                     =  -78.452507815647323
      * CCSD(T) total energy                  =  -78.469308057656377
*** Psi4 exiting successfully. Buy a developer a beer!
